 Entering Gaussian System, Link 0=g09
 Input=irc.com
 Output=irc.log
 Initial command:
 /opt/gaussian/g09_d.01/g09/l1.exe "/data/heinen/g09_scratch/Gau-174842.inp" -scrdir="/data/heinen/g09_scratch/"
 Entering Link 1 = /opt/gaussian/g09_d.01/g09/l1.exe PID=    174844.
  
 Copyright (c) 1988,1990,1992,1993,1995,1998,2003,2009,2013,
            Gaussian, Inc.  All Rights Reserved.
  
 This is part of the Gaussian(R) 09 program.  It is based on
 the Gaussian(R) 03 system (copyright 2003, Gaussian, Inc.),
 the Gaussian(R) 98 system (copyright 1998, Gaussian, Inc.),
 the Gaussian(R) 94 system (copyright 1995, Gaussian, Inc.),
 the Gaussian 92(TM) system (copyright 1992, Gaussian, Inc.),
 the Gaussian 90(TM) system (copyright 1990, Gaussian, Inc.),
 the Gaussian 88(TM) system (copyright 1988, Gaussian, Inc.),
 the Gaussian 86(TM) system (copyright 1986, Carnegie Mellon
 University), and the Gaussian 82(TM) system (copyright 1983,
 Carnegie Mellon University). Gaussian is a federally registered
 trademark of Gaussian, Inc.
  
 This software contains proprietary and confidential information,
 including trade secrets, belonging to Gaussian, Inc.
  
 This software is provided under written license and may be
 used, copied, transmitted, or stored only in accord with that
 written license.
  
 The following legend is applicable only to US Government
 contracts under FAR:
  
                    RESTRICTED RIGHTS LEGEND
  
 Use, reproduction and disclosure by the US Government is
 subject to restrictions as set forth in subparagraphs (a)
 and (c) of the Commercial Computer Software - Restricted
 Rights clause in FAR 52.227-19.
  
 Gaussian, Inc.
 340 Quinnipiac St., Bldg. 40, Wallingford CT 06492
  
  
 ---------------------------------------------------------------
 Warning -- This program may not be used in any manner that
 competes with the business of Gaussian, Inc. or will provide
 assistance to any competitor of Gaussian, Inc.  The licensee
 of this program is prohibited from giving any competitor of
 Gaussian, Inc. access to this program.  By using this program,
 the user acknowledges that Gaussian, Inc. is engaged in the
 business of creating and licensing software in the field of
 computational chemistry and represents and warrants to the
 licensee that it is not a competitor of Gaussian, Inc. and that
 it will not use this program in any manner prohibited above.
 ---------------------------------------------------------------
  

 Cite this work as:
 Gaussian 09, Revision D.01,
 M. J. Frisch, G. W. Trucks, H. B. Schlegel, G. E. Scuseria, 
 M. A. Robb, J. R. Cheeseman, G. Scalmani, V. Barone, B. Mennucci, 
 G. A. Petersson, H. Nakatsuji, M. Caricato, X. Li, H. P. Hratchian, 
 A. F. Izmaylov, J. Bloino, G. Zheng, J. L. Sonnenberg, M. Hada, 
 M. Ehara, K. Toyota, R. Fukuda, J. Hasegawa, M. Ishida, T. Nakajima, 
 Y. Honda, O. Kitao, H. Nakai, T. Vreven, J. A. Montgomery, Jr., 
 J. E. Peralta, F. Ogliaro, M. Bearpark, J. J. Heyd, E. Brothers, 
 K. N. Kudin, V. N. Staroverov, T. Keith, R. Kobayashi, J. Normand, 
 K. Raghavachari, A. Rendell, J. C. Burant, S. S. Iyengar, J. Tomasi, 
 M. Cossi, N. Rega, J. M. Millam, M. Klene, J. E. Knox, J. B. Cross, 
 V. Bakken, C. Adamo, J. Jaramillo, R. Gomperts, R. E. Stratmann, 
 O. Yazyev, A. J. Austin, R. Cammi, C. Pomelli, J. W. Ochterski, 
 R. L. Martin, K. Morokuma, V. G. Zakrzewski, G. A. Voth, 
 P. Salvador, J. J. Dannenberg, S. Dapprich, A. D. Daniels, 
 O. Farkas, J. B. Foresman, J. V. Ortiz, J. Cioslowski, 
 and D. J. Fox, Gaussian, Inc., Wallingford CT, 2013.
 
 ******************************************
 Gaussian 09:  ES64L-G09RevD.01 24-Apr-2013
                 3-Oct-2022 
 ******************************************
 %nprocshared=10
 Will use up to   10 processors via shared memory.
 -------------------------------------------------
 #p pbe1pbe 6-311g(d) irc=(maxpoints=100, calcall)
 -------------------------------------------------
 1/10=4,14=-1,18=10,26=3,38=1,42=100,44=3,71=1/1,23;
 2/12=2,17=6,18=5,29=1,40=1/2;
 3/5=4,6=6,7=1,11=2,16=1,25=1,30=1,71=2,74=-13,140=1/1,2,3;
 4//1;
 5/5=2,38=5/2;
 8/6=4,10=90,11=11/1;
 11/6=1,8=1,9=11,15=111,16=1/1,2,10;
 10/6=1,13=1/2;
 6/7=2,8=2,9=2,10=2,18=1,28=1/1;
 7/10=1,25=1/1,2,3,16;
 1/10=4,14=-1,18=10,26=3,42=100,44=3,71=1/23(2);
 2/29=1/2;
 99/5=20/99;
 2/29=1/2;
 3/5=4,6=6,7=1,11=2,16=1,25=1,30=1,71=2,74=-13,140=1/1,2,3;
 4/5=5,16=3,69=1/1;
 5/5=2,38=5/2;
 8/6=4,10=90,11=11/1;
 11/6=1,8=1,9=11,15=111,16=1/1,2,10;
 10/6=1,13=1/2;
 7/10=1,25=1/1,2,3,16;
 1/10=4,14=-1,18=10,26=3,42=100,44=3,71=1/23(-8);
 2/29=1/2;
 6/7=2,8=2,9=2,10=2,18=1,19=2,28=1/1;
 99/5=20/99;
 Leave Link    1 at Mon Oct  3 17:08:48 2022, MaxMem=           0 cpu:         0.2
 (Enter /opt/gaussian/g09_d.01/g09/l101.exe)
 ---
 irc
 ---
 Symbolic Z-matrix:
 Charge =  0 Multiplicity = 1
 C                    -0.48499   1.45225   0.32416 
 C                    -1.31072   0.53319  -0.29002 
 H                    -1.24139  -0.96296   1.2497 
 C                     1.48573   0.6564   -0.29144 
 H                     1.58054  -0.79396   1.26955 
 H                    -1.8917   -1.54099  -0.34701 
 C                     1.21586  -0.58117   0.25163 
 H                    -1.61438   0.71043  -1.31888 
 C                    -1.3211   -0.78627   0.1814 
 H                    -0.27792   1.37607   1.38661 
 H                    -0.35512   2.44789  -0.08972 
 O                     0.34874  -1.3775   -0.25498 
 H                     1.26964   0.84046  -1.33687 
 H                     2.23177   1.29672   0.17212 
 
 NAtoms=     14 NQM=       14 NQMF=       0 NMMI=      0 NMMIF=      0
                NMic=       0 NMicF=      0.
                    Isotopes and Nuclear Properties:
 (Nuclear quadrupole moments (NQMom) in fm**2, nuclear magnetic moments (NMagM)
  in nuclear magnetons)

  Atom         1           2           3           4           5           6           7           8           9          10
 IAtWgt=          12          12           1          12           1           1          12           1          12           1
 AtmWgt=  12.0000000  12.0000000   1.0078250  12.0000000   1.0078250   1.0078250  12.0000000   1.0078250  12.0000000   1.0078250
 NucSpn=           0           0           1           0           1           1           0           1           0           1
 AtZEff=   0.0000000   0.0000000   0.0000000   0.0000000   0.0000000   0.0000000   0.0000000   0.0000000   0.0000000   0.0000000
 NQMom=    0.0000000   0.0000000   0.0000000   0.0000000   0.0000000   0.0000000   0.0000000   0.0000000   0.0000000   0.0000000
 NMagM=    0.0000000   0.0000000   2.7928460   0.0000000   2.7928460   2.7928460   0.0000000   2.7928460   0.0000000   2.7928460
 AtZNuc=   6.0000000   6.0000000   1.0000000   6.0000000   1.0000000   1.0000000   6.0000000   1.0000000   6.0000000   1.0000000

  Atom        11          12          13          14
 IAtWgt=           1          16           1           1
 AtmWgt=   1.0078250  15.9949146   1.0078250   1.0078250
 NucSpn=           1           0           1           1
 AtZEff=   0.0000000   0.0000000   0.0000000   0.0000000
 NQMom=    0.0000000   0.0000000   0.0000000   0.0000000
 NMagM=    2.7928460   0.0000000   2.7928460   2.7928460
 AtZNuc=   1.0000000   8.0000000   1.0000000   1.0000000
 Leave Link  101 at Mon Oct  3 17:08:48 2022, MaxMem=    33554432 cpu:         0.5
 (Enter /opt/gaussian/g09_d.01/g09/l123.exe)
 IRC-IRC-IRC-IRC-IRC-IRC-IRC-IRC-IRC-IRC-IRC-IRC-IRC-IRC-IRC-IRC-IRC-IRC
 ------------------------------------------------------------------------
 INPUT DATA FOR L123
 ------------------------------------------------------------------------
 GENERAL PARAMETERS:
 Follow reaction path in both directions.
 Maximum points per path      = 100
 Step size                    =   0.100 bohr
 Integration scheme           = HPC                                 
    Redo corrector integration= Yes                                 
    DWI Weight Power          =  2
    DWI will use Hessian update vectors when possible.
    Max correction cycles     =  20
 Initial Hessian              = CalcFC
 Hessian evaluation           = Analytic at all predictor steps
                              = Update at all corrector steps
 Hessian updating method      = Bofill                              
 ------------------------------------------------------------------------
 IRC-IRC-IRC-IRC-IRC-IRC-IRC-IRC-IRC-IRC-IRC-IRC-IRC-IRC-IRC-IRC-IRC-IRC
 Leave Link  123 at Mon Oct  3 17:08:48 2022, MaxMem=    33554432 cpu:         0.0
 (Enter /opt/gaussian/g09_d.01/g09/l202.exe)
                          Input orientation:                          
 ---------------------------------------------------------------------
 Center     Atomic      Atomic             Coordinates (Angstroms)
 Number     Number       Type             X           Y           Z
 ---------------------------------------------------------------------
      1          6           0       -0.484990    1.452247    0.324158
      2          6           0       -1.310716    0.533185   -0.290023
      3          1           0       -1.241389   -0.962958    1.249704
      4          6           0        1.485728    0.656396   -0.291443
      5          1           0        1.580539   -0.793964    1.269551
      6          1           0       -1.891697   -1.540986   -0.347007
      7          6           0        1.215861   -0.581171    0.251625
      8          1           0       -1.614382    0.710433   -1.318884
      9          6           0       -1.321104   -0.786273    0.181403
     10          1           0       -0.277921    1.376069    1.386614
     11          1           0       -0.355119    2.447890   -0.089720
     12          8           0        0.348736   -1.377497   -0.254980
     13          1           0        1.269636    0.840464   -1.336866
     14          1           0        2.231771    1.296724    0.172124
 ---------------------------------------------------------------------
                    Distance matrix (angstroms):
                    1          2          3          4          5
     1  C    0.000000
     2  C    1.379752   0.000000
     3  H    2.694808   2.148025   0.000000
     4  C    2.212707   2.799157   3.526274   0.000000
     5  H    3.194627   3.543014   2.827053   2.132894   0.000000
     6  H    3.374719   2.154756   1.818379   4.029711   3.902272
     7  C    2.651970   2.814030   2.679552   1.378159   1.102018
     8  H    2.127299   1.087283   3.088204   3.266380   4.378439
     9  C    2.393833   1.401185   1.085744   3.191110   3.098977
    10  H    1.085124   2.142016   2.533389   2.538555   2.859479
    11  H    1.086032   2.149275   3.770068   2.576599   4.012980
    12  O    3.006319   2.530951   2.228097   2.330408   2.045005
    13  H    2.492387   2.801520   4.030871   1.083276   3.092155
    14  H    2.725453   3.653188   4.281376   1.086966   2.449372
                    6          7          8          9         10
     6  H    0.000000
     7  C    3.307041   0.000000
     8  H    2.467861   3.484970   0.000000
     9  C    1.083691   2.546211   2.139393   0.000000
    10  H    3.757516   2.711157   3.090132   2.686352   0.000000
    11  H    4.282336   3.429243   2.472922   3.386214   1.826013
    12  O    2.248274   1.281674   3.056988   1.824374   3.266444
    13  H    4.079847   2.132426   2.887004   3.415164   3.177916
    14  H    5.032403   2.136559   4.166502   4.118481   2.789236
                   11         12         13         14
    11  H    0.000000
    12  O    3.893110   0.000000
    13  H    2.603655   2.633987   0.000000
    14  H    2.843544   3.298439   1.846870   0.000000
 Symmetry turned off by external request.
 Stoichiometry    C5H8O
 Framework group  C1[X(C5H8O)]
 Deg. of freedom    36
 Full point group                 C1      NOp   1
 Rotational constants (GHZ):      4.8759383      4.1072171      2.5501394
 Leave Link  202 at Mon Oct  3 17:08:48 2022, MaxMem=    33554432 cpu:         0.0
 (Enter /opt/gaussian/g09_d.01/g09/l301.exe)
 Standard basis: 6-311G(d) (5D, 7F)
 Ernie: Thresh=  0.10000D-02 Tol=  0.10000D-05 Strict=F.
   132 basis functions,   232 primitive gaussians,   138 cartesian basis functions
    23 alpha electrons       23 beta electrons
       nuclear repulsion energy       232.8876374945 Hartrees.
 IExCor= 1009 DFT=T Ex+Corr=PBE1PBE ExCW=0 ScaHFX=  0.250000
 ScaDFX=  0.750000  0.750000  1.000000  1.000000 ScalE2=  1.000000  1.000000
 IRadAn=      0 IRanWt=     -1 IRanGd=            0 ICorTp=0 IEmpDi=  4
 NAtoms=   14 NActive=   14 NUniq=   14 SFac= 1.00D+00 NAtFMM=   60 NAOKFM=F Big=F
 Integral buffers will be    131072 words long.
 Raffenetti 2 integral format.
 Two-electron integral symmetry is turned off.
 Leave Link  301 at Mon Oct  3 17:08:48 2022, MaxMem=    33554432 cpu:         0.2
 (Enter /opt/gaussian/g09_d.01/g09/l302.exe)
 NPDir=0 NMtPBC=     1 NCelOv=     1 NCel=       1 NClECP=     1 NCelD=      1
         NCelK=      1 NCelE2=     1 NClLst=     1 CellRange=     0.0.
 One-electron integrals computed using PRISM.
 PrsmSu:  requested number of processors reduced to:   9 ShMem   1 Linda.
 NBasis=   132 RedAO= T EigKep=  1.91D-03  NBF=   132
 NBsUse=   132 1.00D-06 EigRej= -1.00D+00 NBFU=   132
 Precomputing XC quadrature grid using
 IXCGrd= 4 IRadAn=           0 IRanWt=          -1 IRanGd=           0 AccXCQ= 0.00D+00.
 Generated NRdTot=       0 NPtTot=           0 NUsed=           0 NTot=          32
 NSgBfM=   138   138   138   138   138 MxSgAt=    14 MxSgA2=    14.
 Leave Link  302 at Mon Oct  3 17:08:48 2022, MaxMem=    33554432 cpu:         1.1
 (Enter /opt/gaussian/g09_d.01/g09/l303.exe)
 DipDrv:  MaxL=1.
 Leave Link  303 at Mon Oct  3 17:08:48 2022, MaxMem=    33554432 cpu:         0.2
 (Enter /opt/gaussian/g09_d.01/g09/l401.exe)
 ExpMin= 1.03D-01 ExpMax= 8.59D+03 ExpMxC= 1.30D+03 IAcc=1 IRadAn=         1 AccDes= 0.00D+00
 Harris functional with IExCor= 1009 and IRadAn=       1 diagonalized for initial guess.
 HarFok:  IExCor= 1009 AccDes= 0.00D+00 IRadAn=         1 IDoV= 1 UseB2=F ITyADJ=14
 ICtDFT=  3500011 ScaDFX=  1.000000  1.000000  1.000000  1.000000
 FoFCou: FMM=F IPFlag=           0 FMFlag=      100000 FMFlg1=           0
         NFxFlg=           0 DoJE=T BraDBF=F KetDBF=T FulRan=T
         wScrn=  0.000000 ICntrl=     500 IOpCl=  0 I1Cent=   200000004 NGrid=           0
         NMat0=    1 NMatS0=      1 NMatT0=    0 NMatD0=    1 NMtDS0=    0 NMtDT0=    0
 Symmetry not used in FoFCou.
 Harris En= -270.307341252624    
 JPrj=0 DoOrth=F DoCkMO=F.
 Leave Link  401 at Mon Oct  3 17:08:48 2022, MaxMem=    33554432 cpu:         1.0
 (Enter /opt/gaussian/g09_d.01/g09/l502.exe)
 Closed shell SCF:
 Using DIIS extrapolation, IDIIS=  1040.
 Two-electron integral symmetry not used.
 IVT=       77918 IEndB=       77918 NGot=    33554432 MDV=    33512337
 LenX=    33512337 LenY=    33492852
 Requested convergence on RMS density matrix=1.00D-08 within 128 cycles.
 Requested convergence on MAX density matrix=1.00D-06.
 Requested convergence on             energy=1.00D-06.
 No special actions if energy rises.
 Fock matrices will be formed incrementally for  20 cycles.
 Integral accuracy reduced to 1.0D-05 until final iterations.

 Cycle   1  Pass 0  IDiag  1:
 FoFJK:  IHMeth= 1 ICntrl=       0 DoSepK=F KAlg= 0 I1Cent=   0 FoldK=F
 IRaf= 990000000 NMat=   1 IRICut=       1 DoRegI=T DoRafI=F ISym2E= 0.
 FoFCou: FMM=F IPFlag=           0 FMFlag=      100000 FMFlg1=           0
         NFxFlg=           0 DoJE=F BraDBF=F KetDBF=F FulRan=T
         wScrn=  0.000000 ICntrl=       0 IOpCl=  0 I1Cent=           0 NGrid=           0
         NMat0=    1 NMatS0=      1 NMatT0=    0 NMatD0=    1 NMtDS0=    0 NMtDT0=    0
 Symmetry not used in FoFCou.
 E= -270.039869370996    
 DIIS: error= 2.56D-02 at cycle   1 NSaved=   1.
 NSaved= 1 IEnMin= 1 EnMin= -270.039869370996     IErMin= 1 ErrMin= 2.56D-02
 ErrMax= 2.56D-02  0.00D+00 EMaxC= 1.00D-01 BMatC= 1.67D-01 BMatP= 1.67D-01
 IDIUse=3 WtCom= 7.44D-01 WtEn= 2.56D-01
 Coeff-Com:  0.100D+01
 Coeff-En:   0.100D+01
 Coeff:      0.100D+01
 Gap=     0.224 Goal=   None    Shift=    0.000
 GapD=    0.224 DampG=1.000 DampE=0.500 DampFc=0.5000 IDamp=-1.
 Damping current iteration by 5.00D-01
 RMSDP=5.32D-03 MaxDP=1.00D-01              OVMax= 1.71D-01

 Cycle   2  Pass 0  IDiag  1:
 RMSU=  2.63D-03    CP:  9.79D-01
 E= -270.110961072426     Delta-E=       -0.071091701430 Rises=F Damp=T
 DIIS: error= 4.89D-03 at cycle   2 NSaved=   2.
 NSaved= 2 IEnMin= 2 EnMin= -270.110961072426     IErMin= 2 ErrMin= 4.89D-03
 ErrMax= 4.89D-03  0.00D+00 EMaxC= 1.00D-01 BMatC= 9.87D-03 BMatP= 1.67D-01
 IDIUse=3 WtCom= 9.51D-01 WtEn= 4.89D-02
 Coeff-Com:  0.290D-02 0.997D+00
 Coeff-En:   0.363D-01 0.964D+00
 Coeff:      0.453D-02 0.995D+00
 Gap=     0.248 Goal=   None    Shift=    0.000
 RMSDP=1.16D-03 MaxDP=1.92D-02 DE=-7.11D-02 OVMax= 1.15D-01

 Cycle   3  Pass 0  IDiag  1:
 RMSU=  1.00D-03    CP:  9.84D-01  7.83D-01
 E= -270.187395676811     Delta-E=       -0.076434604385 Rises=F Damp=F
 DIIS: error= 6.29D-03 at cycle   3 NSaved=   3.
 NSaved= 3 IEnMin= 3 EnMin= -270.187395676811     IErMin= 2 ErrMin= 4.89D-03
 ErrMax= 6.29D-03  0.00D+00 EMaxC= 1.00D-01 BMatC= 5.97D-03 BMatP= 9.87D-03
 IDIUse=3 WtCom= 9.37D-01 WtEn= 6.29D-02
 Coeff-Com: -0.574D-01 0.438D+00 0.620D+00
 Coeff-En:   0.000D+00 0.000D+00 0.100D+01
 Coeff:     -0.538D-01 0.410D+00 0.644D+00
 Gap=     0.220 Goal=   None    Shift=    0.000
 RMSDP=6.14D-04 MaxDP=1.29D-02 DE=-7.64D-02 OVMax= 3.45D-02

 Cycle   4  Pass 0  IDiag  1:
 RMSU=  4.16D-04    CP:  9.85D-01  8.85D-01  6.37D-01
 E= -270.190435193114     Delta-E=       -0.003039516303 Rises=F Damp=F
 DIIS: error= 4.09D-03 at cycle   4 NSaved=   4.
 NSaved= 4 IEnMin= 4 EnMin= -270.190435193114     IErMin= 4 ErrMin= 4.09D-03
 ErrMax= 4.09D-03  0.00D+00 EMaxC= 1.00D-01 BMatC= 2.31D-03 BMatP= 5.97D-03
 IDIUse=3 WtCom= 9.59D-01 WtEn= 4.09D-02
 Coeff-Com: -0.321D-01 0.135D+00 0.410D+00 0.487D+00
 Coeff-En:   0.000D+00 0.000D+00 0.288D+00 0.712D+00
 Coeff:     -0.308D-01 0.130D+00 0.405D+00 0.496D+00
 Gap=     0.219 Goal=   None    Shift=    0.000
 RMSDP=2.99D-04 MaxDP=5.96D-03 DE=-3.04D-03 OVMax= 1.46D-02

 Cycle   5  Pass 0  IDiag  1:
 RMSU=  1.54D-04    CP:  9.82D-01  8.72D-01  6.99D-01  4.16D-01
 E= -270.192175729786     Delta-E=       -0.001740536672 Rises=F Damp=F
 DIIS: error= 9.13D-04 at cycle   5 NSaved=   5.
 NSaved= 5 IEnMin= 5 EnMin= -270.192175729786     IErMin= 5 ErrMin= 9.13D-04
 ErrMax= 9.13D-04  0.00D+00 EMaxC= 1.00D-01 BMatC= 1.26D-04 BMatP= 2.31D-03
 IDIUse=3 WtCom= 9.91D-01 WtEn= 9.13D-03
 Coeff-Com: -0.123D-01 0.348D-01 0.166D+00 0.269D+00 0.542D+00
 Coeff-En:   0.000D+00 0.000D+00 0.000D+00 0.000D+00 0.100D+01
 Coeff:     -0.121D-01 0.345D-01 0.165D+00 0.267D+00 0.546D+00
 Gap=     0.218 Goal=   None    Shift=    0.000
 RMSDP=1.00D-04 MaxDP=1.72D-03 DE=-1.74D-03 OVMax= 6.09D-03

 Cycle   6  Pass 0  IDiag  1:
 RMSU=  5.27D-05    CP:  9.83D-01  8.76D-01  7.18D-01  5.06D-01  5.23D-01
 E= -270.192271901664     Delta-E=       -0.000096171878 Rises=F Damp=F
 DIIS: error= 3.91D-04 at cycle   6 NSaved=   6.
 NSaved= 6 IEnMin= 6 EnMin= -270.192271901664     IErMin= 6 ErrMin= 3.91D-04
 ErrMax= 3.91D-04  0.00D+00 EMaxC= 1.00D-01 BMatC= 2.12D-05 BMatP= 1.26D-04
 IDIUse=3 WtCom= 9.96D-01 WtEn= 3.91D-03
 Coeff-Com: -0.454D-02 0.882D-02 0.649D-01 0.118D+00 0.347D+00 0.466D+00
 Coeff-En:   0.000D+00 0.000D+00 0.000D+00 0.000D+00 0.161D+00 0.839D+00
 Coeff:     -0.452D-02 0.879D-02 0.646D-01 0.117D+00 0.347D+00 0.467D+00
 Gap=     0.219 Goal=   None    Shift=    0.000
 RMSDP=3.24D-05 MaxDP=5.29D-04 DE=-9.62D-05 OVMax= 2.25D-03

 Cycle   7  Pass 0  IDiag  1:
 RMSU=  1.08D-05    CP:  9.83D-01  8.73D-01  7.19D-01  4.97D-01  6.16D-01
                    CP:  5.11D-01
 E= -270.192293953221     Delta-E=       -0.000022051557 Rises=F Damp=F
 DIIS: error= 3.02D-05 at cycle   7 NSaved=   7.
 NSaved= 7 IEnMin= 7 EnMin= -270.192293953221     IErMin= 7 ErrMin= 3.02D-05
 ErrMax= 3.02D-05  0.00D+00 EMaxC= 1.00D-01 BMatC= 1.54D-07 BMatP= 2.12D-05
 IDIUse=1 WtCom= 1.00D+00 WtEn= 0.00D+00
 Coeff-Com: -0.602D-03 0.623D-03 0.103D-01 0.197D-01 0.732D-01 0.139D+00
 Coeff-Com:  0.757D+00
 Coeff:     -0.602D-03 0.623D-03 0.103D-01 0.197D-01 0.732D-01 0.139D+00
 Coeff:      0.757D+00
 Gap=     0.219 Goal=   None    Shift=    0.000
 RMSDP=3.94D-06 MaxDP=5.92D-05 DE=-2.21D-05 OVMax= 1.98D-04

 Initial convergence to 1.0D-05 achieved.  Increase integral accuracy.
 Cycle   8  Pass 1  IDiag  1:
 E= -270.192273340455     Delta-E=        0.000020612767 Rises=F Damp=F
 DIIS: error= 1.88D-05 at cycle   1 NSaved=   1.
 NSaved= 1 IEnMin= 1 EnMin= -270.192273340455     IErMin= 1 ErrMin= 1.88D-05
 ErrMax= 1.88D-05  0.00D+00 EMaxC= 1.00D-01 BMatC= 6.83D-08 BMatP= 6.83D-08
 IDIUse=1 WtCom= 1.00D+00 WtEn= 0.00D+00
 Coeff-Com:  0.100D+01
 Coeff:      0.100D+01
 Gap=     0.219 Goal=   None    Shift=    0.000
 RMSDP=3.94D-06 MaxDP=5.92D-05 DE= 2.06D-05 OVMax= 2.81D-04

 Cycle   9  Pass 1  IDiag  1:
 RMSU=  8.39D-06    CP:  1.00D+00
 E= -270.192273294981     Delta-E=        0.000000045474 Rises=F Damp=F
 DIIS: error= 3.31D-05 at cycle   2 NSaved=   2.
 NSaved= 2 IEnMin= 1 EnMin= -270.192273340455     IErMin= 1 ErrMin= 1.88D-05
 ErrMax= 3.31D-05  0.00D+00 EMaxC= 1.00D-01 BMatC= 1.25D-07 BMatP= 6.83D-08
 IDIUse=1 WtCom= 1.00D+00 WtEn= 0.00D+00
 Coeff-Com:  0.587D+00 0.413D+00
 Coeff:      0.587D+00 0.413D+00
 Gap=     0.219 Goal=   None    Shift=    0.000
 RMSDP=2.58D-06 MaxDP=4.11D-05 DE= 4.55D-08 OVMax= 1.82D-04

 Cycle  10  Pass 1  IDiag  1:
 RMSU=  2.36D-06    CP:  1.00D+00  8.76D-01
 E= -270.192273431478     Delta-E=       -0.000000136497 Rises=F Damp=F
 DIIS: error= 4.25D-06 at cycle   3 NSaved=   3.
 NSaved= 3 IEnMin= 3 EnMin= -270.192273431478     IErMin= 3 ErrMin= 4.25D-06
 ErrMax= 4.25D-06  0.00D+00 EMaxC= 1.00D-01 BMatC= 2.87D-09 BMatP= 6.83D-08
 IDIUse=1 WtCom= 1.00D+00 WtEn= 0.00D+00
 Coeff-Com: -0.227D-01 0.118D+00 0.905D+00
 Coeff:     -0.227D-01 0.118D+00 0.905D+00
 Gap=     0.219 Goal=   None    Shift=    0.000
 RMSDP=5.32D-07 MaxDP=7.67D-06 DE=-1.36D-07 OVMax= 3.01D-05

 Cycle  11  Pass 1  IDiag  1:
 RMSU=  2.47D-07    CP:  1.00D+00  9.30D-01  9.45D-01
 E= -270.192273434382     Delta-E=       -0.000000002904 Rises=F Damp=F
 DIIS: error= 1.40D-06 at cycle   4 NSaved=   4.
 NSaved= 4 IEnMin= 4 EnMin= -270.192273434382     IErMin= 4 ErrMin= 1.40D-06
 ErrMax= 1.40D-06  0.00D+00 EMaxC= 1.00D-01 BMatC= 3.40D-10 BMatP= 2.87D-09
 IDIUse=1 WtCom= 1.00D+00 WtEn= 0.00D+00
 Coeff-Com: -0.233D-01 0.575D-01 0.493D+00 0.473D+00
 Coeff:     -0.233D-01 0.575D-01 0.493D+00 0.473D+00
 Gap=     0.219 Goal=   None    Shift=    0.000
 RMSDP=1.22D-07 MaxDP=2.97D-06 DE=-2.90D-09 OVMax= 7.86D-06

 Cycle  12  Pass 1  IDiag  1:
 RMSU=  9.04D-08    CP:  1.00D+00  9.31D-01  9.51D-01  6.78D-01
 E= -270.192273434701     Delta-E=       -0.000000000319 Rises=F Damp=F
 DIIS: error= 2.71D-07 at cycle   5 NSaved=   5.
 NSaved= 5 IEnMin= 5 EnMin= -270.192273434701     IErMin= 5 ErrMin= 2.71D-07
 ErrMax= 2.71D-07  0.00D+00 EMaxC= 1.00D-01 BMatC= 1.24D-11 BMatP= 3.40D-10
 IDIUse=1 WtCom= 1.00D+00 WtEn= 0.00D+00
 Coeff-Com: -0.753D-02 0.134D-01 0.121D+00 0.199D+00 0.674D+00
 Coeff:     -0.753D-02 0.134D-01 0.121D+00 0.199D+00 0.674D+00
 Gap=     0.219 Goal=   None    Shift=    0.000
 RMSDP=3.46D-08 MaxDP=5.27D-07 DE=-3.19D-10 OVMax= 2.00D-06

 Cycle  13  Pass 1  IDiag  1:
 RMSU=  2.92D-08    CP:  1.00D+00  9.33D-01  9.50D-01  7.22D-01  8.95D-01
 E= -270.192273434712     Delta-E=       -0.000000000011 Rises=F Damp=F
 DIIS: error= 1.51D-07 at cycle   6 NSaved=   6.
 NSaved= 6 IEnMin= 6 EnMin= -270.192273434712     IErMin= 6 ErrMin= 1.51D-07
 ErrMax= 1.51D-07  0.00D+00 EMaxC= 1.00D-01 BMatC= 2.83D-12 BMatP= 1.24D-11
 IDIUse=1 WtCom= 1.00D+00 WtEn= 0.00D+00
 Coeff-Com: -0.225D-02 0.239D-02 0.260D-01 0.700D-01 0.378D+00 0.526D+00
 Coeff:     -0.225D-02 0.239D-02 0.260D-01 0.700D-01 0.378D+00 0.526D+00
 Gap=     0.219 Goal=   None    Shift=    0.000
 RMSDP=1.55D-08 MaxDP=2.84D-07 DE=-1.07D-11 OVMax= 9.21D-07

 Cycle  14  Pass 1  IDiag  1:
 RMSU=  1.15D-08    CP:  1.00D+00  9.33D-01  9.50D-01  7.22D-01  9.50D-01
                    CP:  7.06D-01
 E= -270.192273434712     Delta-E=        0.000000000000 Rises=F Damp=F
 DIIS: error= 7.28D-08 at cycle   7 NSaved=   7.
 NSaved= 7 IEnMin= 7 EnMin= -270.192273434712     IErMin= 7 ErrMin= 7.28D-08
 ErrMax= 7.28D-08  0.00D+00 EMaxC= 1.00D-01 BMatC= 7.12D-13 BMatP= 2.83D-12
 IDIUse=1 WtCom= 1.00D+00 WtEn= 0.00D+00
 Coeff-Com:  0.507D-03-0.221D-02-0.153D-01-0.683D-02 0.726D-01 0.356D+00
 Coeff-Com:  0.595D+00
 Coeff:      0.507D-03-0.221D-02-0.153D-01-0.683D-02 0.726D-01 0.356D+00
 Coeff:      0.595D+00
 Gap=     0.219 Goal=   None    Shift=    0.000
 RMSDP=6.34D-09 MaxDP=1.08D-07 DE=-2.27D-13 OVMax= 3.99D-07

 SCF Done:  E(RPBE1PBE) =  -270.192273435     A.U. after   14 cycles
            NFock= 14  Conv=0.63D-08     -V/T= 2.0035
 KE= 2.692446225751D+02 PE=-1.096144747636D+03 EE= 3.238202141321D+02
 Leave Link  502 at Mon Oct  3 17:08:51 2022, MaxMem=    33554432 cpu:        26.5
 (Enter /opt/gaussian/g09_d.01/g09/l801.exe)
 DoSCS=F DFT=T ScalE2(SS,OS)=  1.000000  1.000000
 Range of M.O.s used for correlation:     1   132
 NBasis=   132 NAE=    23 NBE=    23 NFC=     0 NFV=     0
 NROrb=    132 NOA=    23 NOB=    23 NVA=   109 NVB=   109
 Leave Link  801 at Mon Oct  3 17:08:51 2022, MaxMem=    33554432 cpu:         0.2
 (Enter /opt/gaussian/g09_d.01/g09/l1101.exe)
 Using compressed storage, NAtomX=    14.
 Will process     15 centers per pass.
 PrsmSu:  requested number of processors reduced to:   9 ShMem   1 Linda.
 Leave Link 1101 at Mon Oct  3 17:08:51 2022, MaxMem=    33554432 cpu:         0.8
 (Enter /opt/gaussian/g09_d.01/g09/l1102.exe)
 Symmetrizing basis deriv contribution to polar:
 IMax=3 JMax=2 DiffMx= 0.00D+00
 Leave Link 1102 at Mon Oct  3 17:08:51 2022, MaxMem=    33554432 cpu:         0.2
 (Enter /opt/gaussian/g09_d.01/g09/l1110.exe)
 Forming Gx(P) for the SCF density, NAtomX=    14.
 Integral derivatives from FoFJK, PRISM(SPDF).
 Do as many integral derivatives as possible in FoFJK.
 G2DrvN: MDV=      33554216.
 G2DrvN: will do    15 centers at a time, making    1 passes.
 Calling FoFCou, ICntrl=  3107 FMM=F I1Cent=   0 AccDes= 0.00D+00.
 FoFJK:  IHMeth= 1 ICntrl=    3107 DoSepK=F KAlg= 0 I1Cent=   0 FoldK=F
 IRaf=         0 NMat=   1 IRICut=       1 DoRegI=T DoRafI=F ISym2E= 0.
 FoFCou: FMM=F IPFlag=           0 FMFlag=      100000 FMFlg1=           0
         NFxFlg=           0 DoJE=F BraDBF=F KetDBF=F FulRan=T
         wScrn=  0.000000 ICntrl=    3107 IOpCl=  0 I1Cent=           0 NGrid=           0
         NMat0=    1 NMatS0=      1 NMatT0=    0 NMatD0=    1 NMtDS0=    0 NMtDT0=    0
 Symmetry not used in FoFCou.
 End of G2Drv F.D. properties file   721 does not exist.
 End of G2Drv F.D. properties file   722 does not exist.
 End of G2Drv F.D. properties file   788 does not exist.
 Leave Link 1110 at Mon Oct  3 17:08:56 2022, MaxMem=    33554432 cpu:        44.3
 (Enter /opt/gaussian/g09_d.01/g09/l1002.exe)
 Minotr:  Closed shell wavefunction.
          IDoAtm=11111111111111
          Direct CPHF calculation.
          Differentiating once with respect to nuclear coordinates.
          Requested convergence is 1.0D-08 RMS, and 1.0D-07 maximum.
          Secondary convergence is 1.0D-12 RMS, and 1.0D-12 maximum.
          NewPWx=T KeepS1=F KeepF1=F KeepIn=T MapXYZ=F SortEE=F KeepMc=T.
          MDV=      33554156 using IRadAn=       2.
 Generate precomputed XC quadrature information.
          Solving linear equations simultaneously, MaxMat=       0.
 FoFJK:  IHMeth= 1 ICntrl=       0 DoSepK=F KAlg= 0 I1Cent=   0 FoldK=F
 IRaf= 990000000 NMat=  45 IRICut=     112 DoRegI=T DoRafI=T ISym2E= 0.
 FoFCou: FMM=F IPFlag=           0 FMFlag=      100000 FMFlg1=           0
         NFxFlg=           0 DoJE=F BraDBF=F KetDBF=F FulRan=T
         wScrn=  0.000000 ICntrl=       0 IOpCl=  0 I1Cent=           0 NGrid=           0
         NMat0=   45 NMatS0=     45 NMatT0=    0 NMatD0=   45 NMtDS0=    0 NMtDT0=    0
 Symmetry not used in FoFCou.
          There are    45 degrees of freedom in the 1st order CPHF.  IDoFFX=6 NUNeed=     0.
     39 vectors produced by pass  0 Test12= 5.57D-15 2.22D-09 XBig12= 9.91D-02 1.55D-01.
 AX will form    39 AO Fock derivatives at one time.
     39 vectors produced by pass  1 Test12= 5.57D-15 2.22D-09 XBig12= 7.00D-03 2.56D-02.
     39 vectors produced by pass  2 Test12= 5.57D-15 2.22D-09 XBig12= 6.10D-05 1.11D-03.
     39 vectors produced by pass  3 Test12= 5.57D-15 2.22D-09 XBig12= 2.14D-07 5.95D-05.
     39 vectors produced by pass  4 Test12= 5.57D-15 2.22D-09 XBig12= 3.50D-10 2.64D-06.
     35 vectors produced by pass  5 Test12= 5.57D-15 2.22D-09 XBig12= 4.18D-13 8.23D-08.
      3 vectors produced by pass  6 Test12= 5.57D-15 2.22D-09 XBig12= 5.28D-16 3.82D-09.
 InvSVY:  IOpt=1 It=  1 EMax= 2.33D-15
 Solved reduced A of dimension   233 with    39 vectors.
 End of Minotr F.D. properties file   721 does not exist.
 End of Minotr F.D. properties file   722 does not exist.
 End of Minotr F.D. properties file   788 does not exist.
 Leave Link 1002 at Mon Oct  3 17:09:02 2022, MaxMem=    33554432 cpu:        59.0
 (Enter /opt/gaussian/g09_d.01/g09/l601.exe)
 Copying SCF densities to generalized density rwf, IOpCl= 0 IROHF=0.

 **********************************************************************

            Population analysis using the SCF density.

 **********************************************************************

 Alpha  occ. eigenvalues --  -19.19424 -10.26701 -10.26025 -10.24701 -10.22573
 Alpha  occ. eigenvalues --  -10.21568  -1.04999  -0.82805  -0.76755  -0.69693
 Alpha  occ. eigenvalues --   -0.59247  -0.57896  -0.50762  -0.48246  -0.46625
 Alpha  occ. eigenvalues --   -0.45617  -0.42209  -0.40180  -0.38618  -0.38039
 Alpha  occ. eigenvalues --   -0.29671  -0.27614  -0.23607
 Alpha virt. eigenvalues --   -0.01755   0.00447   0.06506   0.06958   0.08962
 Alpha virt. eigenvalues --    0.09516   0.11262   0.12799   0.12971   0.14362
 Alpha virt. eigenvalues --    0.16324   0.25522   0.26091   0.29229   0.31840
 Alpha virt. eigenvalues --    0.33520   0.33781   0.38081   0.38473   0.40091
 Alpha virt. eigenvalues --    0.42422   0.45350   0.46256   0.48117   0.53194
 Alpha virt. eigenvalues --    0.54524   0.57332   0.58300   0.58693   0.59558
 Alpha virt. eigenvalues --    0.61731   0.62539   0.64352   0.66873   0.67901
 Alpha virt. eigenvalues --    0.69049   0.70765   0.72983   0.75556   0.82949
 Alpha virt. eigenvalues --    0.90489   0.94465   0.99204   1.02996   1.03947
 Alpha virt. eigenvalues --    1.14275   1.17211   1.20524   1.28397   1.33137
 Alpha virt. eigenvalues --    1.35722   1.36647   1.42173   1.45096   1.48596
 Alpha virt. eigenvalues --    1.50644   1.51924   1.58351   1.62611   1.63615
 Alpha virt. eigenvalues --    1.72640   1.74212   1.76598   1.79693   1.86602
 Alpha virt. eigenvalues --    1.94458   1.96152   2.02343   2.06242   2.13031
 Alpha virt. eigenvalues --    2.16564   2.21597   2.32820   2.35703   2.36795
 Alpha virt. eigenvalues --    2.39763   2.45456   2.52373   2.58287   2.62965
 Alpha virt. eigenvalues --    2.68611   2.70887   2.83139   2.89670   2.93494
 Alpha virt. eigenvalues --    3.03693   3.09364   3.12698   3.16409   3.19950
 Alpha virt. eigenvalues --    3.25362   3.28118   3.30638   3.35167   3.41819
 Alpha virt. eigenvalues --    3.45968   3.65289   3.69843   4.04672   4.12381
 Alpha virt. eigenvalues --    5.02555   5.05598   5.62378  23.40799  23.56914
 Alpha virt. eigenvalues --   23.93303  24.14843  24.17966  50.05120
          Condensed to atoms (all electrons):
               1          2          3          4          5          6
     1  C    5.375522   0.494673  -0.007551   0.066984  -0.006389   0.006384
     2  C    0.494673   5.074254  -0.047570  -0.053492   0.001158  -0.033670
     3  H   -0.007551  -0.047570   0.461373   0.000541   0.004080  -0.028079
     4  C    0.066984  -0.053492   0.000541   5.531343  -0.098680   0.000485
     5  H   -0.006389   0.001158   0.004080  -0.098680   0.581260  -0.000067
     6  H    0.006384  -0.033670  -0.028079   0.000485  -0.000067   0.428524
     7  C   -0.032441  -0.040554  -0.007400   0.467470   0.391928   0.002256
     8  H   -0.049600   0.406995   0.006141  -0.000704   0.000265  -0.007323
     9  C   -0.062239   0.464466   0.387136  -0.034707  -0.004081   0.389240
    10  H    0.389373  -0.042310   0.004278  -0.018771   0.002294  -0.000118
    11  H    0.390499  -0.035998  -0.000182  -0.005229  -0.000292  -0.000284
    12  O   -0.027821  -0.041152  -0.022544  -0.074796  -0.047722  -0.007062
    13  H   -0.018502  -0.004409   0.000355   0.378718   0.007977  -0.000101
    14  H   -0.005342   0.002823   0.000013   0.355482   0.000434   0.000000
               7          8          9         10         11         12
     1  C   -0.032441  -0.049600  -0.062239   0.389373   0.390499  -0.027821
     2  C   -0.040554   0.406995   0.464466  -0.042310  -0.035998  -0.041152
     3  H   -0.007400   0.006141   0.387136   0.004278  -0.000182  -0.022544
     4  C    0.467470  -0.000704  -0.034707  -0.018771  -0.005229  -0.074796
     5  H    0.391928   0.000265  -0.004081   0.002294  -0.000292  -0.047722
     6  H    0.002256  -0.007323   0.389240  -0.000118  -0.000284  -0.007062
     7  C    4.881937  -0.000087  -0.080021  -0.006170   0.000919   0.439128
     8  H   -0.000087   0.486880  -0.045887   0.005965  -0.007348   0.002132
     9  C   -0.080021  -0.045887   5.250687  -0.002749   0.006106   0.102406
    10  H   -0.006170   0.005965  -0.002749   0.446054  -0.030973   0.000138
    11  H    0.000919  -0.007348   0.006106  -0.030973   0.436917   0.000156
    12  O    0.439128   0.002132   0.102406   0.000138   0.000156   8.019075
    13  H   -0.036968   0.001951  -0.000192   0.002059  -0.002248   0.006080
    14  H   -0.026257   0.000005   0.000806  -0.000168  -0.000436   0.004185
              13         14
     1  C   -0.018502  -0.005342
     2  C   -0.004409   0.002823
     3  H    0.000355   0.000013
     4  C    0.378718   0.355482
     5  H    0.007977   0.000434
     6  H   -0.000101   0.000000
     7  C   -0.036968  -0.026257
     8  H    0.001951   0.000005
     9  C   -0.000192   0.000806
    10  H    0.002059  -0.000168
    11  H   -0.002248  -0.000436
    12  O    0.006080   0.004185
    13  H    0.434048  -0.026400
    14  H   -0.026400   0.469320
 Mulliken charges:
               1
     1  C   -0.513550
     2  C   -0.145216
     3  H    0.249408
     4  C   -0.514646
     5  H    0.167833
     6  H    0.249816
     7  C    0.046258
     8  H    0.200615
     9  C   -0.370972
    10  H    0.251098
    11  H    0.248393
    12  O   -0.352203
    13  H    0.257633
    14  H    0.225534
 Sum of Mulliken charges =   0.00000
 Mulliken charges with hydrogens summed into heavy atoms:
               1
     1  C   -0.014059
     2  C    0.055399
     4  C   -0.031479
     7  C    0.214091
     9  C    0.128252
    12  O   -0.352203
 APT charges:
               1
     1  C   -0.982508
     2  C   -0.439255
     3  H    0.424097
     4  C   -0.926695
     5  H    0.432172
     6  H    0.594755
     7  C   -0.325328
     8  H    0.481598
     9  C   -0.932369
    10  H    0.416195
    11  H    0.579691
    12  O   -0.296377
    13  H    0.415084
    14  H    0.558938
 Sum of APT charges =   0.00000
 APT charges with hydrogens summed into heavy atoms:
               1
     1  C    0.013379
     2  C    0.042343
     4  C    0.047327
     7  C    0.106844
     9  C    0.086483
    12  O   -0.296377
 Electronic spatial extent (au):  <R**2>=            533.4864
 Charge=              0.0000 electrons
 Dipole moment (field-independent basis, Debye):
    X=             -0.2396    Y=              1.7120    Z=              0.7999  Tot=              1.9048
 Quadrupole moment (field-independent basis, Debye-Ang):
   XX=            -37.4964   YY=            -37.9631   ZZ=            -35.0068
   XY=              3.5277   XZ=              1.8248   YZ=             -1.7836
 Traceless Quadrupole moment (field-independent basis, Debye-Ang):
   XX=             -0.6743   YY=             -1.1410   ZZ=              1.8153
   XY=              3.5277   XZ=              1.8248   YZ=             -1.7836
 Octapole moment (field-independent basis, Debye-Ang**2):
  XXX=              4.3628  YYY=              2.7495  ZZZ=             -0.1700  XYY=             -1.4359
  XXY=             -5.5806  XXZ=             -0.7768  XZZ=             -0.5681  YZZ=             -1.0384
  YYZ=             -0.0469  XYZ=             -0.1644
 Hexadecapole moment (field-independent basis, Debye-Ang**3):
 XXXX=           -367.3183 YYYY=           -278.5562 ZZZZ=            -82.2391 XXXY=             15.7347
 XXXZ=             10.8672 YYYX=              8.0363 YYYZ=             -1.7608 ZZZX=              1.1681
 ZZZY=             -1.8151 XXYY=           -101.6257 XXZZ=            -70.4191 YYZZ=            -60.4273
 XXYZ=             -0.4023 YYXZ=              3.5159 ZZXY=              0.5651
 N-N= 2.328876374945D+02 E-N=-1.096144750397D+03  KE= 2.692446225751D+02
  Exact polarizability:   0.000   0.000   0.000   0.000   0.000   0.000
 Approx polarizability: 118.637   4.760 110.669   5.482  -1.689  71.217
 No NMR shielding tensors so no spin-rotation constants.
 Leave Link  601 at Mon Oct  3 17:09:02 2022, MaxMem=    33554432 cpu:         0.6
 (Enter /opt/gaussian/g09_d.01/g09/l701.exe)
 Compute integral second derivatives.
 ... and contract with generalized density number  0.
 PrsmSu:  requested number of processors reduced to:   9 ShMem   1 Linda.
 Leave Link  701 at Mon Oct  3 17:09:02 2022, MaxMem=    33554432 cpu:         0.8
 (Enter /opt/gaussian/g09_d.01/g09/l702.exe)
 L702 exits ... SP integral derivatives will be done elsewhere.
 Leave Link  702 at Mon Oct  3 17:09:02 2022, MaxMem=    33554432 cpu:         0.2
 (Enter /opt/gaussian/g09_d.01/g09/l703.exe)
 Compute integral second derivatives, UseDBF=F ICtDFT=           0.
 Integral derivatives from FoFJK, PRISM(SPDF).
 Calling FoFJK, ICntrl=    100127 FMM=F ISym2X=0 I1Cent= 0 IOpClX= 0 NMat=1 NMatS=1 NMatT=0.
 FoFJK:  IHMeth= 1 ICntrl=  100127 DoSepK=F KAlg= 0 I1Cent=   0 FoldK=F
 IRaf=         0 NMat=   1 IRICut=       1 DoRegI=T DoRafI=F ISym2E= 0.
 FoFCou: FMM=F IPFlag=           0 FMFlag=      100000 FMFlg1=         800
         NFxFlg=           0 DoJE=F BraDBF=F KetDBF=F FulRan=T
         wScrn=  0.000000 ICntrl=  100127 IOpCl=  0 I1Cent=           0 NGrid=           0
         NMat0=    1 NMatS0=      1 NMatT0=    0 NMatD0=    1 NMtDS0=    0 NMtDT0=    0
 Symmetry not used in FoFCou.
 Leave Link  703 at Mon Oct  3 17:09:08 2022, MaxMem=    33554432 cpu:        58.1
 (Enter /opt/gaussian/g09_d.01/g09/l716.exe)
 Dipole        =-9.42648730D-02 6.73552328D-01 3.14720222D-01
 Polarizability= 0.00000000D+00 0.00000000D+00 0.00000000D+00
                 0.00000000D+00 0.00000000D+00 0.00000000D+00
 -------------------------------------------------------------------
 Center     Atomic                   Forces (Hartrees/Bohr)
 Number     Number              X              Y              Z
 -------------------------------------------------------------------
      1        6          -0.000005895   -0.000003176    0.000001318
      2        6          -0.000002428   -0.000006651    0.000001898
      3        1           0.000008096   -0.000007409    0.000000440
      4        6          -0.000002988    0.000008738   -0.000002138
      5        1           0.000006970    0.000007716   -0.000003296
      6        1           0.000008694   -0.000009746    0.000000922
      7        6           0.000004787    0.000006011   -0.000001804
      8        1          -0.000004431   -0.000007341    0.000002447
      9        6           0.000006020   -0.000006667    0.000001394
     10        1          -0.000004220   -0.000002232    0.000001535
     11        1          -0.000011971   -0.000001342    0.000002168
     12        8           0.000007845    0.000002322   -0.000001668
     13        1          -0.000005076    0.000007817   -0.000001087
     14        1          -0.000005402    0.000011961   -0.000002128
 -------------------------------------------------------------------
 Cartesian Forces:  Max     0.000011971 RMS     0.000005638
 Z-matrix is all fixed cartesians, so copy forces.
 Leave Link  716 at Mon Oct  3 17:09:08 2022, MaxMem=    33554432 cpu:         0.2
 (Enter /opt/gaussian/g09_d.01/g09/l123.exe)
 IRC-IRC-IRC-IRC-IRC-IRC-IRC-IRC-IRC-IRC-IRC-IRC-IRC-IRC-IRC-IRC-IRC-IRC
          ******** Start new reaction path calculation ********
 Current Structure is TS -> form Hessian eigenvectors.
                            Diagonalizing Hessian.
 Supplied step size of   0.1000 bohr.
    Integration on MW PES will use step size of   0.3089 sqrt(amu)*bohr.
 Point Number:   0          Path Number:   1
 Calculating another point on the path.
 Point Number  1 in FORWARD path direction.
 Using LQA Reaction Path Following.
 IRC-IRC-IRC-IRC-IRC-IRC-IRC-IRC-IRC-IRC-IRC-IRC-IRC-IRC-IRC-IRC-IRC-IRC
 Leave Link  123 at Mon Oct  3 17:09:08 2022, MaxMem=    33554432 cpu:         0.0
 (Enter /opt/gaussian/g09_d.01/g09/l202.exe)
                          Input orientation:                          
 ---------------------------------------------------------------------
 Center     Atomic      Atomic             Coordinates (Angstroms)
 Number     Number       Type             X           Y           Z
 ---------------------------------------------------------------------
      1          6           0       -0.468373    1.485492    0.332063
      2          6           0       -1.315365    0.569843   -0.278464
      3          1           0       -1.241226   -0.923177    1.260880
      4          6           0        1.464423    0.707172   -0.275823
      5          1           0        1.578798   -0.751612    1.282758
      6          1           0       -1.908261   -1.497195   -0.334783
      7          6           0        1.211957   -0.545754    0.262603
      8          1           0       -1.616525    0.748739   -1.307827
      9          6           0       -1.349010   -0.736756    0.197003
     10          1           0       -0.284365    1.419367    1.400135
     11          1           0       -0.348787    2.483767   -0.078945
     12          8           0        0.363659   -1.343694   -0.246169
     13          1           0        1.270484    0.876880   -1.328711
     14          1           0        2.212261    1.346563    0.186895
 ---------------------------------------------------------------------
                    Distance matrix (angstroms):
                    1          2          3          4          5
     1  C    0.000000
     2  C    1.388723   0.000000
     3  H    2.694753   2.145737   0.000000
     4  C    2.170486   2.783180   3.512838   0.000000
     5  H    3.177949   3.543986   2.825323   2.137827   0.000000
     6  H    3.378519   2.151127   1.822244   4.029604   3.915599
     7  C    2.637100   2.815079   2.675278   1.386890   1.103479
     8  H    2.133143   1.087331   3.087784   3.249461   4.378615
     9  C    2.394191   1.390828   1.085451   3.197483   3.122682
    10  H    1.085821   2.145308   2.534263   2.524740   2.863267
    11  H    1.086178   2.153413   3.768136   2.546131   4.004684
    12  O    3.005150   2.545936   2.241358   2.327792   2.040770
    13  H    2.480363   2.807829   4.031733   1.083968   3.093026
    14  H    2.688155   3.641978   4.269864   1.087286   2.450414
                    6          7          8          9         10
     6  H    0.000000
     7  C    3.316303   0.000000
     8  H    2.464984   3.484576   0.000000
     9  C    1.083432   2.568917   2.131378   0.000000
    10  H    3.762089   2.719312   3.091512   2.688840   0.000000
    11  H    4.283162   3.424993   2.475406   3.383543   1.823397
    12  O    2.278823   1.270892   3.070264   1.870297   3.280969
    13  H    4.090054   2.135320   2.889926   3.434148   3.187231
    14  H    5.033668   2.141776   4.153455   4.125890   2.776759
                   11         12         13         14
    11  H    0.000000
    12  O    3.896794   0.000000
    13  H    2.601161   2.631573   0.000000
    14  H    2.814760   3.292774   1.845158   0.000000
 Symmetry turned off by external request.
 Stoichiometry    C5H8O
 Framework group  C1[X(C5H8O)]
 Deg. of freedom    36
 Full point group                 C1      NOp   1
 Rotational constants (GHZ):      4.8717611      4.1042977      2.5479093
 Leave Link  202 at Mon Oct  3 17:09:08 2022, MaxMem=    33554432 cpu:         0.0
 (Enter /opt/gaussian/g09_d.01/g09/l301.exe)
 Standard basis: 6-311G(d) (5D, 7F)
 Ernie: Thresh=  0.10000D-02 Tol=  0.10000D-05 Strict=F.
   132 basis functions,   232 primitive gaussians,   138 cartesian basis functions
    23 alpha electrons       23 beta electrons
       nuclear repulsion energy       232.7442095195 Hartrees.
 IExCor= 1009 DFT=T Ex+Corr=PBE1PBE ExCW=0 ScaHFX=  0.250000
 ScaDFX=  0.750000  0.750000  1.000000  1.000000 ScalE2=  1.000000  1.000000
 IRadAn=      0 IRanWt=     -1 IRanGd=            0 ICorTp=0 IEmpDi=  4
 NAtoms=   14 NActive=   14 NUniq=   14 SFac= 1.00D+00 NAtFMM=   60 NAOKFM=F Big=F
 Integral buffers will be    131072 words long.
 Raffenetti 2 integral format.
 Two-electron integral symmetry is turned off.
 Leave Link  301 at Mon Oct  3 17:09:08 2022, MaxMem=    33554432 cpu:         0.2
 (Enter /opt/gaussian/g09_d.01/g09/l302.exe)
 NPDir=0 NMtPBC=     1 NCelOv=     1 NCel=       1 NClECP=     1 NCelD=      1
         NCelK=      1 NCelE2=     1 NClLst=     1 CellRange=     0.0.
 One-electron integrals computed using PRISM.
 PrsmSu:  requested number of processors reduced to:   9 ShMem   1 Linda.
 NBasis=   132 RedAO= T EigKep=  1.90D-03  NBF=   132
 NBsUse=   132 1.00D-06 EigRej= -1.00D+00 NBFU=   132
 Precomputing XC quadrature grid using
 IXCGrd= 4 IRadAn=           0 IRanWt=          -1 IRanGd=           0 AccXCQ= 0.00D+00.
 Generated NRdTot=       0 NPtTot=           0 NUsed=           0 NTot=          32
 NSgBfM=   138   138   138   138   138 MxSgAt=    14 MxSgA2=    14.
 Leave Link  302 at Mon Oct  3 17:09:08 2022, MaxMem=    33554432 cpu:         0.9
 (Enter /opt/gaussian/g09_d.01/g09/l303.exe)
 DipDrv:  MaxL=1.
 Leave Link  303 at Mon Oct  3 17:09:08 2022, MaxMem=    33554432 cpu:         0.2
 (Enter /opt/gaussian/g09_d.01/g09/l401.exe)
 Initial guess from the checkpoint file:  "/data/heinen/g09_scratch/Gau-174844.chk"
 B after Tr=    -0.006843    0.075333    0.021993
         Rot=    1.000000    0.000061    0.000031    0.000003 Ang=   0.01 deg.
 Guess basis will be translated and rotated to current coordinates.
 JPrj=2 DoOrth=T DoCkMO=T.
 Generating alternative initial guess.
 ExpMin= 1.03D-01 ExpMax= 8.59D+03 ExpMxC= 1.30D+03 IAcc=1 IRadAn=         1 AccDes= 0.00D+00
 Harris functional with IExCor= 1009 and IRadAn=       1 diagonalized for initial guess.
 HarFok:  IExCor= 1009 AccDes= 0.00D+00 IRadAn=         1 IDoV= 1 UseB2=F ITyADJ=14
 ICtDFT=  3500011 ScaDFX=  1.000000  1.000000  1.000000  1.000000
 FoFCou: FMM=F IPFlag=           0 FMFlag=      100000 FMFlg1=           0
         NFxFlg=           0 DoJE=T BraDBF=F KetDBF=T FulRan=T
         wScrn=  0.000000 ICntrl=     500 IOpCl=  0 I1Cent=   200000004 NGrid=           0
         NMat0=    1 NMatS0=      1 NMatT0=    0 NMatD0=    1 NMtDS0=    0 NMtDT0=    0
 Symmetry not used in FoFCou.
 Harris En= -270.307461292642    
 Leave Link  401 at Mon Oct  3 17:09:08 2022, MaxMem=    33554432 cpu:         1.3
 (Enter /opt/gaussian/g09_d.01/g09/l502.exe)
 Closed shell SCF:
 Using DIIS extrapolation, IDIIS=  1040.
 Two-electron integral symmetry not used.
 IVT=       77918 IEndB=       77918 NGot=    33554432 MDV=    33512337
 LenX=    33512337 LenY=    33492852
 Requested convergence on RMS density matrix=1.00D-08 within 128 cycles.
 Requested convergence on MAX density matrix=1.00D-06.
 Requested convergence on             energy=1.00D-06.
 No special actions if energy rises.
 Fock matrices will be formed incrementally for  20 cycles.
 Integral accuracy reduced to 1.0D-05 until final iterations.

 Cycle   1  Pass 0  IDiag  1:
 FoFJK:  IHMeth= 1 ICntrl=       0 DoSepK=F KAlg= 0 I1Cent=   0 FoldK=F
 IRaf= 990000000 NMat=   1 IRICut=       1 DoRegI=T DoRafI=F ISym2E= 0.
 FoFCou: FMM=F IPFlag=           0 FMFlag=      100000 FMFlg1=           0
         NFxFlg=           0 DoJE=F BraDBF=F KetDBF=F FulRan=T
         wScrn=  0.000000 ICntrl=       0 IOpCl=  0 I1Cent=           0 NGrid=           0
         NMat0=    1 NMatS0=      1 NMatT0=    0 NMatD0=    1 NMtDS0=    0 NMtDT0=    0
 Symmetry not used in FoFCou.
 E= -270.190872406787    
 DIIS: error= 2.23D-03 at cycle   1 NSaved=   1.
 NSaved= 1 IEnMin= 1 EnMin= -270.190872406787     IErMin= 1 ErrMin= 2.23D-03
 ErrMax= 2.23D-03  0.00D+00 EMaxC= 1.00D-01 BMatC= 7.41D-04 BMatP= 7.41D-04
 IDIUse=3 WtCom= 9.78D-01 WtEn= 2.23D-02
 Coeff-Com:  0.100D+01
 Coeff-En:   0.100D+01
 Coeff:      0.100D+01
 Gap=     0.652 Goal=   None    Shift=    0.000
 GapD=    0.652 DampG=2.000 DampE=1.000 DampFc=2.0000 IDamp=-1.
 RMSDP=3.53D-04 MaxDP=3.89D-03              OVMax= 3.08D-02

 Cycle   2  Pass 0  IDiag  1:
 RMSU=  3.53D-04    CP:  1.00D+00
 E= -270.192675968717     Delta-E=       -0.001803561930 Rises=F Damp=F
 DIIS: error= 7.21D-04 at cycle   2 NSaved=   2.
 NSaved= 2 IEnMin= 2 EnMin= -270.192675968717     IErMin= 2 ErrMin= 7.21D-04
 ErrMax= 7.21D-04  0.00D+00 EMaxC= 1.00D-01 BMatC= 7.20D-05 BMatP= 7.41D-04
 IDIUse=3 WtCom= 9.93D-01 WtEn= 7.21D-03
 Coeff-Com:  0.199D-01 0.980D+00
 Coeff-En:   0.000D+00 0.100D+01
 Coeff:      0.198D-01 0.980D+00
 Gap=     0.217 Goal=   None    Shift=    0.000
 RMSDP=1.33D-04 MaxDP=2.49D-03 DE=-1.80D-03 OVMax= 9.54D-03

 Cycle   3  Pass 0  IDiag  1:
 RMSU=  1.23D-04    CP:  1.00D+00  1.14D+00
 E= -270.192682980924     Delta-E=       -0.000007012206 Rises=F Damp=F
 DIIS: error= 7.97D-04 at cycle   3 NSaved=   3.
 NSaved= 3 IEnMin= 3 EnMin= -270.192682980924     IErMin= 2 ErrMin= 7.21D-04
 ErrMax= 7.97D-04  0.00D+00 EMaxC= 1.00D-01 BMatC= 1.05D-04 BMatP= 7.20D-05
 IDIUse=3 WtCom= 2.62D-01 WtEn= 7.38D-01
 Coeff-Com: -0.484D-01 0.585D+00 0.463D+00
 Coeff-En:   0.000D+00 0.481D+00 0.519D+00
 Coeff:     -0.127D-01 0.508D+00 0.505D+00
 Gap=     0.217 Goal=   None    Shift=    0.000
 RMSDP=9.33D-05 MaxDP=1.88D-03 DE=-7.01D-06 OVMax= 8.45D-03

 Cycle   4  Pass 0  IDiag  1:
 RMSU=  4.91D-05    CP:  1.00D+00  1.23D+00  4.01D-01
 E= -270.192792485636     Delta-E=       -0.000109504712 Rises=F Damp=F
 DIIS: error= 3.61D-04 at cycle   4 NSaved=   4.
 NSaved= 4 IEnMin= 4 EnMin= -270.192792485636     IErMin= 4 ErrMin= 3.61D-04
 ErrMax= 3.61D-04  0.00D+00 EMaxC= 1.00D-01 BMatC= 1.65D-05 BMatP= 7.20D-05
 IDIUse=3 WtCom= 9.96D-01 WtEn= 3.61D-03
 Coeff-Com: -0.183D-01 0.593D-01 0.296D+00 0.663D+00
 Coeff-En:   0.000D+00 0.000D+00 0.121D+00 0.879D+00
 Coeff:     -0.183D-01 0.591D-01 0.295D+00 0.664D+00
 Gap=     0.217 Goal=   None    Shift=    0.000
 RMSDP=3.09D-05 MaxDP=4.97D-04 DE=-1.10D-04 OVMax= 2.28D-03

 Cycle   5  Pass 0  IDiag  1:
 RMSU=  1.42D-05    CP:  1.00D+00  1.25D+00  6.06D-01  8.54D-01
 E= -270.192810494959     Delta-E=       -0.000018009324 Rises=F Damp=F
 DIIS: error= 8.89D-05 at cycle   5 NSaved=   5.
 NSaved= 5 IEnMin= 5 EnMin= -270.192810494959     IErMin= 5 ErrMin= 8.89D-05
 ErrMax= 8.89D-05  0.00D+00 EMaxC= 1.00D-01 BMatC= 1.50D-06 BMatP= 1.65D-05
 IDIUse=1 WtCom= 1.00D+00 WtEn= 0.00D+00
 Coeff-Com: -0.596D-02-0.343D-01 0.144D+00 0.412D+00 0.485D+00
 Coeff:     -0.596D-02-0.343D-01 0.144D+00 0.412D+00 0.485D+00
 Gap=     0.217 Goal=   None    Shift=    0.000
 RMSDP=9.38D-06 MaxDP=1.84D-04 DE=-1.80D-05 OVMax= 4.95D-04

 Initial convergence to 1.0D-05 achieved.  Increase integral accuracy.
 Cycle   6  Pass 1  IDiag  1:
 E= -270.192805289646     Delta-E=        0.000005205313 Rises=F Damp=F
 DIIS: error= 3.36D-05 at cycle   1 NSaved=   1.
 NSaved= 1 IEnMin= 1 EnMin= -270.192805289646     IErMin= 1 ErrMin= 3.36D-05
 ErrMax= 3.36D-05  0.00D+00 EMaxC= 1.00D-01 BMatC= 1.84D-07 BMatP= 1.84D-07
 IDIUse=1 WtCom= 1.00D+00 WtEn= 0.00D+00
 Coeff-Com:  0.100D+01
 Coeff:      0.100D+01
 Gap=     0.217 Goal=   None    Shift=    0.000
 RMSDP=9.38D-06 MaxDP=1.84D-04 DE= 5.21D-06 OVMax= 4.28D-04

 Cycle   7  Pass 1  IDiag  1:
 RMSU=  9.23D-06    CP:  1.00D+00
 E= -270.192804965705     Delta-E=        0.000000323942 Rises=F Damp=F
 DIIS: error= 6.52D-05 at cycle   2 NSaved=   2.
 NSaved= 2 IEnMin= 1 EnMin= -270.192805289646     IErMin= 1 ErrMin= 3.36D-05
 ErrMax= 6.52D-05  0.00D+00 EMaxC= 1.00D-01 BMatC= 6.24D-07 BMatP= 1.84D-07
 IDIUse=1 WtCom= 1.00D+00 WtEn= 0.00D+00
 Coeff-Com:  0.657D+00 0.343D+00
 Coeff:      0.657D+00 0.343D+00
 Gap=     0.217 Goal=   None    Shift=    0.000
 RMSDP=4.99D-06 MaxDP=1.02D-04 DE= 3.24D-07 OVMax= 2.74D-04

 Cycle   8  Pass 1  IDiag  1:
 RMSU=  3.84D-06    CP:  1.00D+00  6.60D-01
 E= -270.192805482048     Delta-E=       -0.000000516343 Rises=F Damp=F
 DIIS: error= 8.01D-06 at cycle   3 NSaved=   3.
 NSaved= 3 IEnMin= 3 EnMin= -270.192805482048     IErMin= 3 ErrMin= 8.01D-06
 ErrMax= 8.01D-06  0.00D+00 EMaxC= 1.00D-01 BMatC= 6.14D-09 BMatP= 1.84D-07
 IDIUse=1 WtCom= 1.00D+00 WtEn= 0.00D+00
 Coeff-Com:  0.299D-01 0.928D-01 0.877D+00
 Coeff:      0.299D-01 0.928D-01 0.877D+00
 Gap=     0.217 Goal=   None    Shift=    0.000
 RMSDP=7.78D-07 MaxDP=1.39D-05 DE=-5.16D-07 OVMax= 5.02D-05

 Cycle   9  Pass 1  IDiag  1:
 RMSU=  5.36D-07    CP:  1.00D+00  7.20D-01  9.84D-01
 E= -270.192805488108     Delta-E=       -0.000000006060 Rises=F Damp=F
 DIIS: error= 1.93D-06 at cycle   4 NSaved=   4.
 NSaved= 4 IEnMin= 4 EnMin= -270.192805488108     IErMin= 4 ErrMin= 1.93D-06
 ErrMax= 1.93D-06  0.00D+00 EMaxC= 1.00D-01 BMatC= 7.55D-10 BMatP= 6.14D-09
 IDIUse=1 WtCom= 1.00D+00 WtEn= 0.00D+00
 Coeff-Com: -0.244D-01 0.258D-01 0.398D+00 0.600D+00
 Coeff:     -0.244D-01 0.258D-01 0.398D+00 0.600D+00
 Gap=     0.217 Goal=   None    Shift=    0.000
 RMSDP=2.47D-07 MaxDP=6.36D-06 DE=-6.06D-09 OVMax= 1.10D-05

 Cycle  10  Pass 1  IDiag  1:
 RMSU=  2.11D-07    CP:  1.00D+00  7.22D-01  1.01D+00  8.74D-01
 E= -270.192805488882     Delta-E=       -0.000000000774 Rises=F Damp=F
 DIIS: error= 8.89D-07 at cycle   5 NSaved=   5.
 NSaved= 5 IEnMin= 5 EnMin= -270.192805488882     IErMin= 5 ErrMin= 8.89D-07
 ErrMax= 8.89D-07  0.00D+00 EMaxC= 1.00D-01 BMatC= 9.18D-11 BMatP= 7.55D-10
 IDIUse=1 WtCom= 1.00D+00 WtEn= 0.00D+00
 Coeff-Com: -0.176D-01 0.175D-02 0.798D-01 0.268D+00 0.668D+00
 Coeff:     -0.176D-01 0.175D-02 0.798D-01 0.268D+00 0.668D+00
 Gap=     0.217 Goal=   None    Shift=    0.000
 RMSDP=9.16D-08 MaxDP=1.90D-06 DE=-7.74D-10 OVMax= 8.86D-06

 Cycle  11  Pass 1  IDiag  1:
 RMSU=  6.95D-08    CP:  1.00D+00  7.25D-01  1.02D+00  9.69D-01  9.63D-01
 E= -270.192805489000     Delta-E=       -0.000000000118 Rises=F Damp=F
 DIIS: error= 4.12D-07 at cycle   6 NSaved=   6.
 NSaved= 6 IEnMin= 6 EnMin= -270.192805489000     IErMin= 6 ErrMin= 4.12D-07
 ErrMax= 4.12D-07  0.00D+00 EMaxC= 1.00D-01 BMatC= 1.27D-11 BMatP= 9.18D-11
 IDIUse=1 WtCom= 1.00D+00 WtEn= 0.00D+00
 Coeff-Com: -0.502D-02-0.153D-02-0.105D-01 0.357D-01 0.291D+00 0.691D+00
 Coeff:     -0.502D-02-0.153D-02-0.105D-01 0.357D-01 0.291D+00 0.691D+00
 Gap=     0.217 Goal=   None    Shift=    0.000
 RMSDP=3.73D-08 MaxDP=5.64D-07 DE=-1.18D-10 OVMax= 2.51D-06

 Cycle  12  Pass 1  IDiag  1:
 RMSU=  2.56D-08    CP:  1.00D+00  7.26D-01  1.02D+00  9.95D-01  1.05D+00
                    CP:  8.25D-01
 E= -270.192805489011     Delta-E=       -0.000000000011 Rises=F Damp=F
 DIIS: error= 1.50D-07 at cycle   7 NSaved=   7.
 NSaved= 7 IEnMin= 7 EnMin= -270.192805489011     IErMin= 7 ErrMin= 1.50D-07
 ErrMax= 1.50D-07  0.00D+00 EMaxC= 1.00D-01 BMatC= 2.90D-12 BMatP= 1.27D-11
 IDIUse=1 WtCom= 1.00D+00 WtEn= 0.00D+00
 Coeff-Com:  0.103D-02-0.687D-03-0.203D-01-0.395D-01 0.221D-01 0.394D+00
 Coeff-Com:  0.644D+00
 Coeff:      0.103D-02-0.687D-03-0.203D-01-0.395D-01 0.221D-01 0.394D+00
 Coeff:      0.644D+00
 Gap=     0.217 Goal=   None    Shift=    0.000
 RMSDP=1.62D-08 MaxDP=2.99D-07 DE=-1.07D-11 OVMax= 1.53D-06

 Cycle  13  Pass 1  IDiag  1:
 RMSU=  6.24D-09    CP:  1.00D+00  7.26D-01  1.02D+00  1.01D+00  1.08D+00
                    CP:  9.58D-01  7.14D-01
 E= -270.192805489015     Delta-E=       -0.000000000004 Rises=F Damp=F
 DIIS: error= 3.67D-08 at cycle   8 NSaved=   8.
 NSaved= 8 IEnMin= 8 EnMin= -270.192805489015     IErMin= 8 ErrMin= 3.67D-08
 ErrMax= 3.67D-08  0.00D+00 EMaxC= 1.00D-01 BMatC= 1.99D-13 BMatP= 2.90D-12
 IDIUse=1 WtCom= 1.00D+00 WtEn= 0.00D+00
 Coeff-Com:  0.843D-03-0.257D-03-0.104D-01-0.234D-01-0.338D-02 0.176D+00
 Coeff-Com:  0.343D+00 0.518D+00
 Coeff:      0.843D-03-0.257D-03-0.104D-01-0.234D-01-0.338D-02 0.176D+00
 Coeff:      0.343D+00 0.518D+00
 Gap=     0.217 Goal=   None    Shift=    0.000
 RMSDP=3.23D-09 MaxDP=8.56D-08 DE=-4.09D-12 OVMax= 1.91D-07

 SCF Done:  E(RPBE1PBE) =  -270.192805489     A.U. after   13 cycles
            NFock= 13  Conv=0.32D-08     -V/T= 2.0035
 KE= 2.692456735697D+02 PE=-1.095868176180D+03 EE= 3.236854876022D+02
 Leave Link  502 at Mon Oct  3 17:09:11 2022, MaxMem=    33554432 cpu:        26.0
 (Enter /opt/gaussian/g09_d.01/g09/l801.exe)
 DoSCS=F DFT=T ScalE2(SS,OS)=  1.000000  1.000000
 Range of M.O.s used for correlation:     1   132
 NBasis=   132 NAE=    23 NBE=    23 NFC=     0 NFV=     0
 NROrb=    132 NOA=    23 NOB=    23 NVA=   109 NVB=   109
 Leave Link  801 at Mon Oct  3 17:09:11 2022, MaxMem=    33554432 cpu:         0.2
 (Enter /opt/gaussian/g09_d.01/g09/l1101.exe)
 Using compressed storage, NAtomX=    14.
 Will process     15 centers per pass.
 PrsmSu:  requested number of processors reduced to:   9 ShMem   1 Linda.
 Leave Link 1101 at Mon Oct  3 17:09:11 2022, MaxMem=    33554432 cpu:         0.9
 (Enter /opt/gaussian/g09_d.01/g09/l1102.exe)
 Symmetrizing basis deriv contribution to polar:
 IMax=3 JMax=2 DiffMx= 0.00D+00
 Leave Link 1102 at Mon Oct  3 17:09:11 2022, MaxMem=    33554432 cpu:         0.2
 (Enter /opt/gaussian/g09_d.01/g09/l1110.exe)
 Forming Gx(P) for the SCF density, NAtomX=    14.
 Integral derivatives from FoFJK, PRISM(SPDF).
 Do as many integral derivatives as possible in FoFJK.
 G2DrvN: MDV=      33554216.
 G2DrvN: will do    15 centers at a time, making    1 passes.
 Calling FoFCou, ICntrl=  3107 FMM=F I1Cent=   0 AccDes= 0.00D+00.
 FoFJK:  IHMeth= 1 ICntrl=    3107 DoSepK=F KAlg= 0 I1Cent=   0 FoldK=F
 IRaf=         0 NMat=   1 IRICut=       1 DoRegI=T DoRafI=F ISym2E= 0.
 FoFCou: FMM=F IPFlag=           0 FMFlag=      100000 FMFlg1=           0
         NFxFlg=           0 DoJE=F BraDBF=F KetDBF=F FulRan=T
         wScrn=  0.000000 ICntrl=    3107 IOpCl=  0 I1Cent=           0 NGrid=           0
         NMat0=    1 NMatS0=      1 NMatT0=    0 NMatD0=    1 NMtDS0=    0 NMtDT0=    0
 Symmetry not used in FoFCou.
 End of G2Drv F.D. properties file   721 does not exist.
 End of G2Drv F.D. properties file   722 does not exist.
 End of G2Drv F.D. properties file   788 does not exist.
 Leave Link 1110 at Mon Oct  3 17:09:15 2022, MaxMem=    33554432 cpu:        44.3
 (Enter /opt/gaussian/g09_d.01/g09/l1002.exe)
 Minotr:  Closed shell wavefunction.
          IDoAtm=11111111111111
          Direct CPHF calculation.
          Differentiating once with respect to nuclear coordinates.
          Requested convergence is 1.0D-08 RMS, and 1.0D-07 maximum.
          Secondary convergence is 1.0D-12 RMS, and 1.0D-12 maximum.
          NewPWx=T KeepS1=F KeepF1=F KeepIn=T MapXYZ=F SortEE=F KeepMc=T.
          MDV=      33554156 using IRadAn=       2.
 Generate precomputed XC quadrature information.
          Solving linear equations simultaneously, MaxMat=       0.
 FoFJK:  IHMeth= 1 ICntrl=       0 DoSepK=F KAlg= 0 I1Cent=   0 FoldK=F
 IRaf= 990000000 NMat=  45 IRICut=     112 DoRegI=T DoRafI=T ISym2E= 0.
 FoFCou: FMM=F IPFlag=           0 FMFlag=      100000 FMFlg1=           0
         NFxFlg=           0 DoJE=F BraDBF=F KetDBF=F FulRan=T
         wScrn=  0.000000 ICntrl=       0 IOpCl=  0 I1Cent=           0 NGrid=           0
         NMat0=   45 NMatS0=     45 NMatT0=    0 NMatD0=   45 NMtDS0=    0 NMtDT0=    0
 Symmetry not used in FoFCou.
          There are    45 degrees of freedom in the 1st order CPHF.  IDoFFX=6 NUNeed=     0.
     39 vectors produced by pass  0 Test12= 5.57D-15 2.22D-09 XBig12= 1.02D-01 1.57D-01.
 AX will form    39 AO Fock derivatives at one time.
     39 vectors produced by pass  1 Test12= 5.57D-15 2.22D-09 XBig12= 6.76D-03 2.52D-02.
     39 vectors produced by pass  2 Test12= 5.57D-15 2.22D-09 XBig12= 5.91D-05 1.09D-03.
     39 vectors produced by pass  3 Test12= 5.57D-15 2.22D-09 XBig12= 2.10D-07 6.35D-05.
     39 vectors produced by pass  4 Test12= 5.57D-15 2.22D-09 XBig12= 3.43D-10 2.41D-06.
     36 vectors produced by pass  5 Test12= 5.57D-15 2.22D-09 XBig12= 4.18D-13 8.19D-08.
      3 vectors produced by pass  6 Test12= 5.57D-15 2.22D-09 XBig12= 5.19D-16 3.51D-09.
 InvSVY:  IOpt=1 It=  1 EMax= 2.44D-15
 Solved reduced A of dimension   234 with    39 vectors.
 End of Minotr F.D. properties file   721 does not exist.
 End of Minotr F.D. properties file   722 does not exist.
 End of Minotr F.D. properties file   788 does not exist.
 Leave Link 1002 at Mon Oct  3 17:09:21 2022, MaxMem=    33554432 cpu:        59.4
 (Enter /opt/gaussian/g09_d.01/g09/l701.exe)
 Compute integral second derivatives.
 ... and contract with generalized density number  0.
 PrsmSu:  requested number of processors reduced to:   9 ShMem   1 Linda.
 Leave Link  701 at Mon Oct  3 17:09:21 2022, MaxMem=    33554432 cpu:         0.9
 (Enter /opt/gaussian/g09_d.01/g09/l702.exe)
 L702 exits ... SP integral derivatives will be done elsewhere.
 Leave Link  702 at Mon Oct  3 17:09:21 2022, MaxMem=    33554432 cpu:         0.2
 (Enter /opt/gaussian/g09_d.01/g09/l703.exe)
 Compute integral second derivatives, UseDBF=F ICtDFT=           0.
 Integral derivatives from FoFJK, PRISM(SPDF).
 Calling FoFJK, ICntrl=    100127 FMM=F ISym2X=0 I1Cent= 0 IOpClX= 0 NMat=1 NMatS=1 NMatT=0.
 FoFJK:  IHMeth= 1 ICntrl=  100127 DoSepK=F KAlg= 0 I1Cent=   0 FoldK=F
 IRaf=         0 NMat=   1 IRICut=       1 DoRegI=T DoRafI=F ISym2E= 0.
 FoFCou: FMM=F IPFlag=           0 FMFlag=      100000 FMFlg1=         800
         NFxFlg=           0 DoJE=F BraDBF=F KetDBF=F FulRan=T
         wScrn=  0.000000 ICntrl=  100127 IOpCl=  0 I1Cent=           0 NGrid=           0
         NMat0=    1 NMatS0=      1 NMatT0=    0 NMatD0=    1 NMtDS0=    0 NMtDT0=    0
 Symmetry not used in FoFCou.
 Leave Link  703 at Mon Oct  3 17:09:27 2022, MaxMem=    33554432 cpu:        59.5
 (Enter /opt/gaussian/g09_d.01/g09/l716.exe)
 Dipole        =-4.95138701D-02 6.96479688D-01 3.10698436D-01
 Polarizability= 0.00000000D+00 0.00000000D+00 0.00000000D+00
                 0.00000000D+00 0.00000000D+00 0.00000000D+00
 -------------------------------------------------------------------
 Center     Atomic                   Forces (Hartrees/Bohr)
 Number     Number              X              Y              Z
 -------------------------------------------------------------------
      1        6           0.005407941   -0.001588876   -0.000818557
      2        6          -0.000251428   -0.000866429   -0.000140922
      3        1           0.000064470    0.000023941   -0.000240846
      4        6          -0.004823048    0.002954420    0.000840562
      5        1           0.000071635    0.000010202    0.000007132
      6        1          -0.000318235    0.000125424    0.000047676
      7        6          -0.000003363   -0.000997883    0.000012877
      8        1          -0.000009421   -0.000026317   -0.000006789
      9        6          -0.005961715    0.002273367    0.001190996
     10        1          -0.000082529    0.000085472   -0.000144149
     11        1           0.000111055   -0.000072327    0.000020791
     12        8           0.005960849   -0.002032422   -0.000961398
     13        1           0.000146701   -0.000080799    0.000141077
     14        1          -0.000312911    0.000192226    0.000051549
 -------------------------------------------------------------------
 Cartesian Forces:  Max     0.005961715 RMS     0.001890509
 Z-matrix is all fixed cartesians, so copy forces.
 Leave Link  716 at Mon Oct  3 17:09:27 2022, MaxMem=    33554432 cpu:         0.2
 (Enter /opt/gaussian/g09_d.01/g09/l123.exe)
 IRC-IRC-IRC-IRC-IRC-IRC-IRC-IRC-IRC-IRC-IRC-IRC-IRC-IRC-IRC-IRC-IRC-IRC
 Pt  1 Step number   1 out of a maximum of  20
 Using modified Bulirsch-Stoer corrector integration.
   Using distance weighted interpolants to fit PES.
 PreDWI: IReCr0= 2 IReCr1= 1 IReCr2= 1 IReCr3= 1
 Modified Bulirsch-Stoer Extrapolation Cycles:
    EPS =    0.000010000000000
    Cycle     1 NS=    48
    Cycle     2 NS=    64 Truncation Error =  0.001195246
    Cycle     3 NS=    96 Truncation Error =  0.000000124
 BS completed in    3 cycles and     208 integration steps.
 Maximum DWI energy   std dev =  0.000000530 at pt    53
 Maximum DWI gradient std dev =  0.027299246 at pt    21
 SUMMARY OF CORRECTOR INTEGRATION:
   Predictor End Point Energy =  -270.192805
   Old End Point Energy       =  -270.192805
   Corrected End Point Energy =  -270.192806
   Predictor End-Start Dist.  =     0.308908
   Old End-Start Dist.        =     0.308908
   New End-Start Dist.        =     0.308864
   New End-Old End Dist.      =     0.004286
 CORRECTOR INTEGRATION CONVERGENCE:
   Recorrection delta-x convergence threshold:    0.010000
   Delta-x Convergence Met
 Point Number:   1          Path Number:   1
                    CURRENT STRUCTURE
                Cartesian Coordinates (Ang):                
 ---------------------------------------------------------------------
 Center     Atomic                     Coordinates (Angstroms)
 Number     Number                        X           Y           Z
 ---------------------------------------------------------------------
      1          6                   -0.468179    1.485496    0.332002
      2          6                   -1.315302    0.569751   -0.278518
      3          1                   -1.241003   -0.923300    1.260536
      4          6                    1.464152    0.707326   -0.275786
      5          1                    1.579219   -0.751961    1.282564
      6          1                   -1.908573   -1.497077   -0.334573
      7          6                    1.211999   -0.545715    0.262668
      8          1                   -1.616958    0.748746   -1.307719
      9          6                   -1.348795   -0.736898    0.196987
     10          1                   -0.284283    1.419338    1.399834
     11          1                   -0.349662    2.484025   -0.078654
     12          8                    0.363525   -1.343660   -0.246141
     13          1                    1.270498    0.877032   -1.328412
     14          1                    2.212372    1.346436    0.186752
 ---------------------------------------------------------------------
   CHANGE IN THE REACTION COORDINATE =    0.30886
   NET REACTION COORDINATE UP TO THIS POINT =    0.30886
  # OF POINTS ALONG THE PATH =   1
  # OF STEPS =   1

 Calculating another point on the path.
 Point Number  2 in FORWARD path direction.
 Using LQA Reaction Path Following.
   LQA: T_Est iteration completed in    3 iterations.
 IRC-IRC-IRC-IRC-IRC-IRC-IRC-IRC-IRC-IRC-IRC-IRC-IRC-IRC-IRC-IRC-IRC-IRC
 Leave Link  123 at Mon Oct  3 17:09:27 2022, MaxMem=    33554432 cpu:         0.3
 (Enter /opt/gaussian/g09_d.01/g09/l202.exe)
                          Input orientation:                          
 ---------------------------------------------------------------------
 Center     Atomic      Atomic             Coordinates (Angstroms)
 Number     Number       Type             X           Y           Z
 ---------------------------------------------------------------------
      1          6           0       -0.447217    1.478960    0.327920
      2          6           0       -1.316111    0.566488   -0.278734
      3          1           0       -1.236947   -0.923472    1.259349
      4          6           0        1.445251    0.718851   -0.271449
      5          1           0        1.582233   -0.750684    1.283505
      6          1           0       -1.922773   -1.492466   -0.333384
      7          6           0        1.211656   -0.549973    0.262207
      8          1           0       -1.616855    0.747597   -1.307896
      9          6           0       -1.372283   -0.727601    0.200806
     10          1           0       -0.286395    1.422753    1.400830
     11          1           0       -0.341906    2.480895   -0.078798
     12          8           0        0.381285   -1.349456   -0.248806
     13          1           0        1.274558    0.874119   -1.331044
     14          1           0        2.196674    1.355913    0.189608
 ---------------------------------------------------------------------
                    Distance matrix (angstroms):
                    1          2          3          4          5
     1  C    0.000000
     2  C    1.398432   0.000000
     3  H    2.694979   2.142883   0.000000
     4  C    2.125663   2.765572   3.497821   0.000000
     5  H    3.162771   3.546256   2.824573   2.143870   0.000000
     6  H    3.382892   2.147165   1.825078   4.029559   3.930603
     7  C    2.621592   2.815796   2.670103   1.396163   1.104836
     8  H    2.139822   1.087392   3.086673   3.232884   4.381138
     9  C    2.396000   1.381224   1.084987   3.202147   3.146734
    10  H    1.086351   2.148125   2.535416   2.508105   2.868687
    11  H    1.086455   2.157314   3.765827   2.517109   4.000160
    12  O    3.003159   2.559861   2.252702   2.326033   2.036856
    13  H    2.466273   2.813105   4.031021   1.084428   3.093624
    14  H    2.650364   3.630730   4.257898   1.087685   2.451918
                    6          7          8          9         10
     6  H    0.000000
     7  C    3.326810   0.000000
     8  H    2.461938   3.485597   0.000000
     9  C    1.083244   2.590765   2.124195   0.000000
    10  H    3.766129   2.726218   3.092435   2.691325   0.000000
    11  H    4.283871   3.422864   2.478003   3.381464   1.819902
    12  O    2.310041   1.260882   3.084132   1.914120   3.294273
    13  H    4.101095   2.137859   2.894273   3.452222   3.193855
    14  H    5.035537   2.146610   4.141929   4.132628   2.763541
                   11         12         13         14
    11  H    0.000000
    12  O    3.901729   0.000000
    13  H    2.600539   2.629346   0.000000
    14  H    2.789626   3.287380   1.842500   0.000000
 Symmetry turned off by external request.
 Stoichiometry    C5H8O
 Framework group  C1[X(C5H8O)]
 Deg. of freedom    36
 Full point group                 C1      NOp   1
 Rotational constants (GHZ):      4.8672592      4.1038130      2.5461245
 Leave Link  202 at Mon Oct  3 17:09:27 2022, MaxMem=    33554432 cpu:         0.0
 (Enter /opt/gaussian/g09_d.01/g09/l301.exe)
 Standard basis: 6-311G(d) (5D, 7F)
 Ernie: Thresh=  0.10000D-02 Tol=  0.10000D-05 Strict=F.
   132 basis functions,   232 primitive gaussians,   138 cartesian basis functions
    23 alpha electrons       23 beta electrons
       nuclear repulsion energy       232.6409686053 Hartrees.
 IExCor= 1009 DFT=T Ex+Corr=PBE1PBE ExCW=0 ScaHFX=  0.250000
 ScaDFX=  0.750000  0.750000  1.000000  1.000000 ScalE2=  1.000000  1.000000
 IRadAn=      0 IRanWt=     -1 IRanGd=            0 ICorTp=0 IEmpDi=  4
 NAtoms=   14 NActive=   14 NUniq=   14 SFac= 1.00D+00 NAtFMM=   60 NAOKFM=F Big=F
 Integral buffers will be    131072 words long.
 Raffenetti 2 integral format.
 Two-electron integral symmetry is turned off.
 Leave Link  301 at Mon Oct  3 17:09:27 2022, MaxMem=    33554432 cpu:         0.2
 (Enter /opt/gaussian/g09_d.01/g09/l302.exe)
 NPDir=0 NMtPBC=     1 NCelOv=     1 NCel=       1 NClECP=     1 NCelD=      1
         NCelK=      1 NCelE2=     1 NClLst=     1 CellRange=     0.0.
 One-electron integrals computed using PRISM.
 PrsmSu:  requested number of processors reduced to:   9 ShMem   1 Linda.
 NBasis=   132 RedAO= T EigKep=  1.90D-03  NBF=   132
 NBsUse=   132 1.00D-06 EigRej= -1.00D+00 NBFU=   132
 Precomputing XC quadrature grid using
 IXCGrd= 4 IRadAn=           0 IRanWt=          -1 IRanGd=           0 AccXCQ= 0.00D+00.
 Generated NRdTot=       0 NPtTot=           0 NUsed=           0 NTot=          32
 NSgBfM=   138   138   138   138   138 MxSgAt=    14 MxSgA2=    14.
 Leave Link  302 at Mon Oct  3 17:09:27 2022, MaxMem=    33554432 cpu:         0.8
 (Enter /opt/gaussian/g09_d.01/g09/l303.exe)
 DipDrv:  MaxL=1.
 Leave Link  303 at Mon Oct  3 17:09:27 2022, MaxMem=    33554432 cpu:         0.2
 (Enter /opt/gaussian/g09_d.01/g09/l401.exe)
 Initial guess from the checkpoint file:  "/data/heinen/g09_scratch/Gau-174844.chk"
 B after Tr=    -0.000275    0.000229    0.000041
         Rot=    1.000000    0.000036   -0.000011   -0.000029 Ang=   0.01 deg.
 Guess basis will be translated and rotated to current coordinates.
 JPrj=2 DoOrth=T DoCkMO=T.
 Generating alternative initial guess.
 ExpMin= 1.03D-01 ExpMax= 8.59D+03 ExpMxC= 1.30D+03 IAcc=1 IRadAn=         1 AccDes= 0.00D+00
 Harris functional with IExCor= 1009 and IRadAn=       1 diagonalized for initial guess.
 HarFok:  IExCor= 1009 AccDes= 0.00D+00 IRadAn=         1 IDoV= 1 UseB2=F ITyADJ=14
 ICtDFT=  3500011 ScaDFX=  1.000000  1.000000  1.000000  1.000000
 FoFCou: FMM=F IPFlag=           0 FMFlag=      100000 FMFlg1=           0
         NFxFlg=           0 DoJE=T BraDBF=F KetDBF=T FulRan=T
         wScrn=  0.000000 ICntrl=     500 IOpCl=  0 I1Cent=   200000004 NGrid=           0
         NMat0=    1 NMatS0=      1 NMatT0=    0 NMatD0=    1 NMtDS0=    0 NMtDT0=    0
 Symmetry not used in FoFCou.
 Harris En= -270.308753823115    
 Leave Link  401 at Mon Oct  3 17:09:28 2022, MaxMem=    33554432 cpu:         1.3
 (Enter /opt/gaussian/g09_d.01/g09/l502.exe)
 Closed shell SCF:
 Using DIIS extrapolation, IDIIS=  1040.
 Two-electron integral symmetry not used.
 IVT=       77918 IEndB=       77918 NGot=    33554432 MDV=    33512337
 LenX=    33512337 LenY=    33492852
 Requested convergence on RMS density matrix=1.00D-08 within 128 cycles.
 Requested convergence on MAX density matrix=1.00D-06.
 Requested convergence on             energy=1.00D-06.
 No special actions if energy rises.
 Fock matrices will be formed incrementally for  20 cycles.
 Integral accuracy reduced to 1.0D-05 until final iterations.

 Cycle   1  Pass 0  IDiag  1:
 FoFJK:  IHMeth= 1 ICntrl=       0 DoSepK=F KAlg= 0 I1Cent=   0 FoldK=F
 IRaf= 990000000 NMat=   1 IRICut=       1 DoRegI=T DoRafI=F ISym2E= 0.
 FoFCou: FMM=F IPFlag=           0 FMFlag=      100000 FMFlg1=           0
         NFxFlg=           0 DoJE=F BraDBF=F KetDBF=F FulRan=T
         wScrn=  0.000000 ICntrl=       0 IOpCl=  0 I1Cent=           0 NGrid=           0
         NMat0=    1 NMatS0=      1 NMatT0=    0 NMatD0=    1 NMtDS0=    0 NMtDT0=    0
 Symmetry not used in FoFCou.
 E= -270.192491752377    
 DIIS: error= 2.23D-03 at cycle   1 NSaved=   1.
 NSaved= 1 IEnMin= 1 EnMin= -270.192491752377     IErMin= 1 ErrMin= 2.23D-03
 ErrMax= 2.23D-03  0.00D+00 EMaxC= 1.00D-01 BMatC= 7.12D-04 BMatP= 7.12D-04
 IDIUse=3 WtCom= 9.78D-01 WtEn= 2.23D-02
 Coeff-Com:  0.100D+01
 Coeff-En:   0.100D+01
 Coeff:      0.100D+01
 Gap=     0.651 Goal=   None    Shift=    0.000
 GapD=    0.651 DampG=2.000 DampE=1.000 DampFc=2.0000 IDamp=-1.
 RMSDP=3.46D-04 MaxDP=3.59D-03              OVMax= 3.01D-02

 Cycle   2  Pass 0  IDiag  1:
 RMSU=  3.46D-04    CP:  1.00D+00
 E= -270.194241916985     Delta-E=       -0.001750164607 Rises=F Damp=F
 DIIS: error= 7.16D-04 at cycle   2 NSaved=   2.
 NSaved= 2 IEnMin= 2 EnMin= -270.194241916985     IErMin= 2 ErrMin= 7.16D-04
 ErrMax= 7.16D-04  0.00D+00 EMaxC= 1.00D-01 BMatC= 6.96D-05 BMatP= 7.12D-04
 IDIUse=3 WtCom= 9.93D-01 WtEn= 7.16D-03
 Coeff-Com:  0.200D-01 0.980D+00
 Coeff-En:   0.000D+00 0.100D+01
 Coeff:      0.198D-01 0.980D+00
 Gap=     0.216 Goal=   None    Shift=    0.000
 RMSDP=1.31D-04 MaxDP=2.61D-03 DE=-1.75D-03 OVMax= 9.38D-03

 Cycle   3  Pass 0  IDiag  1:
 RMSU=  1.21D-04    CP:  1.00D+00  1.14D+00
 E= -270.194249151193     Delta-E=       -0.000007234208 Rises=F Damp=F
 DIIS: error= 7.74D-04 at cycle   3 NSaved=   3.
 NSaved= 3 IEnMin= 3 EnMin= -270.194249151193     IErMin= 2 ErrMin= 7.16D-04
 ErrMax= 7.74D-04  0.00D+00 EMaxC= 1.00D-01 BMatC= 1.01D-04 BMatP= 6.96D-05
 IDIUse=3 WtCom= 2.64D-01 WtEn= 7.36D-01
 Coeff-Com: -0.483D-01 0.584D+00 0.464D+00
 Coeff-En:   0.000D+00 0.479D+00 0.521D+00
 Coeff:     -0.128D-01 0.507D+00 0.506D+00
 Gap=     0.217 Goal=   None    Shift=    0.000
 RMSDP=9.17D-05 MaxDP=1.92D-03 DE=-7.23D-06 OVMax= 8.35D-03

 Cycle   4  Pass 0  IDiag  1:
 RMSU=  4.90D-05    CP:  1.00D+00  1.23D+00  4.03D-01
 E= -270.194354574757     Delta-E=       -0.000105423564 Rises=F Damp=F
 DIIS: error= 3.64D-04 at cycle   4 NSaved=   4.
 NSaved= 4 IEnMin= 4 EnMin= -270.194354574757     IErMin= 4 ErrMin= 3.64D-04
 ErrMax= 3.64D-04  0.00D+00 EMaxC= 1.00D-01 BMatC= 1.66D-05 BMatP= 6.96D-05
 IDIUse=3 WtCom= 9.96D-01 WtEn= 3.64D-03
 Coeff-Com: -0.197D-01 0.845D-01 0.305D+00 0.630D+00
 Coeff-En:   0.000D+00 0.000D+00 0.123D+00 0.877D+00
 Coeff:     -0.197D-01 0.842D-01 0.304D+00 0.631D+00
 Gap=     0.217 Goal=   None    Shift=    0.000
 RMSDP=3.07D-05 MaxDP=5.48D-04 DE=-1.05D-04 OVMax= 2.19D-03

 Cycle   5  Pass 0  IDiag  1:
 RMSU=  1.57D-05    CP:  1.00D+00  1.25D+00  5.99D-01  8.27D-01
 E= -270.194371936689     Delta-E=       -0.000017361932 Rises=F Damp=F
 DIIS: error= 1.02D-04 at cycle   5 NSaved=   5.
 NSaved= 5 IEnMin= 5 EnMin= -270.194371936689     IErMin= 5 ErrMin= 1.02D-04
 ErrMax= 1.02D-04  0.00D+00 EMaxC= 1.00D-01 BMatC= 1.97D-06 BMatP= 1.66D-05
 IDIUse=3 WtCom= 9.99D-01 WtEn= 1.02D-03
 Coeff-Com: -0.652D-02-0.317D-01 0.150D+00 0.417D+00 0.472D+00
 Coeff-En:   0.000D+00 0.000D+00 0.000D+00 0.000D+00 0.100D+01
 Coeff:     -0.651D-02-0.317D-01 0.149D+00 0.416D+00 0.472D+00
 Gap=     0.217 Goal=   None    Shift=    0.000
 RMSDP=1.01D-05 MaxDP=2.03D-04 DE=-1.74D-05 OVMax= 5.21D-04

 Cycle   6  Pass 0  IDiag  1:
 RMSU=  4.84D-06    CP:  1.00D+00  1.25D+00  6.18D-01  9.32D-01  5.92D-01
 E= -270.194373554713     Delta-E=       -0.000001618024 Rises=F Damp=F
 DIIS: error= 2.95D-05 at cycle   6 NSaved=   6.
 NSaved= 6 IEnMin= 6 EnMin= -270.194373554713     IErMin= 6 ErrMin= 2.95D-05
 ErrMax= 2.95D-05  0.00D+00 EMaxC= 1.00D-01 BMatC= 1.31D-07 BMatP= 1.97D-06
 IDIUse=1 WtCom= 1.00D+00 WtEn= 0.00D+00
 Coeff-Com:  0.122D-02-0.361D-01 0.122D-01 0.548D-01 0.211D+00 0.756D+00
 Coeff:      0.122D-02-0.361D-01 0.122D-01 0.548D-01 0.211D+00 0.756D+00
 Gap=     0.217 Goal=   None    Shift=    0.000
 RMSDP=3.54D-06 MaxDP=5.30D-05 DE=-1.62D-06 OVMax= 2.21D-04

 Initial convergence to 1.0D-05 achieved.  Increase integral accuracy.
 Cycle   7  Pass 1  IDiag  1:
 E= -270.194395924669     Delta-E=       -0.000022369956 Rises=F Damp=F
 DIIS: error= 1.21D-05 at cycle   1 NSaved=   1.
 NSaved= 1 IEnMin= 1 EnMin= -270.194395924669     IErMin= 1 ErrMin= 1.21D-05
 ErrMax= 1.21D-05  0.00D+00 EMaxC= 1.00D-01 BMatC= 4.87D-08 BMatP= 4.87D-08
 IDIUse=1 WtCom= 1.00D+00 WtEn= 0.00D+00
 Coeff-Com:  0.100D+01
 Coeff:      0.100D+01
 Gap=     0.217 Goal=   None    Shift=    0.000
 RMSDP=3.54D-06 MaxDP=5.30D-05 DE=-2.24D-05 OVMax= 1.95D-04

 Cycle   8  Pass 1  IDiag  1:
 RMSU=  6.31D-06    CP:  1.00D+00
 E= -270.194395910518     Delta-E=        0.000000014150 Rises=F Damp=F
 DIIS: error= 2.14D-05 at cycle   2 NSaved=   2.
 NSaved= 2 IEnMin= 1 EnMin= -270.194395924669     IErMin= 1 ErrMin= 1.21D-05
 ErrMax= 2.14D-05  0.00D+00 EMaxC= 1.00D-01 BMatC= 7.37D-08 BMatP= 4.87D-08
 IDIUse=1 WtCom= 1.00D+00 WtEn= 0.00D+00
 Coeff-Com:  0.561D+00 0.439D+00
 Coeff:      0.561D+00 0.439D+00
[...]
    Cycle     9 NS=   768 Truncation Error =  0.000003425
 BS completed in    9 cycles and    2448 integration steps.
 Maximum DWI energy   std dev =  0.000000562 at pt   284
 Maximum DWI gradient std dev =  0.959063186 at pt   279
 SUMMARY OF CORRECTOR INTEGRATION:
   Predictor End Point Energy =  -270.235710
   Old End Point Energy       =  -270.235711
   Corrected End Point Energy =  -270.235711
   Predictor End-Start Dist.  =     0.308804
   Old End-Start Dist.        =     0.308718
   New End-Start Dist.        =     0.308716
   New End-Old End Dist.      =     0.002359
 CORRECTOR INTEGRATION CONVERGENCE:
   Recorrection delta-x convergence threshold:    0.010000
   Delta-x Convergence Met
 Point Number:  58          Path Number:   2
                    CURRENT STRUCTURE
                Cartesian Coordinates (Ang):                
 ---------------------------------------------------------------------
 Center     Atomic                     Coordinates (Angstroms)
 Number     Number                        X           Y           Z
 ---------------------------------------------------------------------
      1          6                   -1.819474    1.676840    0.618962
      2          6                   -1.443376    0.706560   -0.204932
      3          1                   -0.896038   -0.680155    1.338099
      4          6                    2.550414   -0.355188   -0.450354
      5          1                    1.165763    0.320312    1.001874
      6          1                   -1.646949   -1.422330   -0.083803
      7          6                    1.352742   -0.288967    0.117987
      8          1                   -1.471969    0.858622   -1.282733
      9          6                   -0.961150   -0.635826    0.242258
     10          1                   -1.789500    1.550880    1.698930
     11          1                   -2.180085    2.632107    0.250899
     12          8                    0.285809   -0.984945   -0.341523
     13          1                    2.721473   -0.956826   -1.335913
     14          1                    3.381679    0.191285   -0.024114
 ---------------------------------------------------------------------
   CHANGE IN THE REACTION COORDINATE =    0.30872
   NET REACTION COORDINATE UP TO THIS POINT =   17.90825
  # OF POINTS ALONG THE PATH = 109
  # OF STEPS =   2

 PES minimum detected on this side of the pathway.
    Magnitude of the gradient =      0.0001340
 Calculation of REVERSE path complete.
 Reaction path calculation complete.
 
 Energies reported relative to the TS energy of        -270.192273
 --------------------------------------------------------------------------
    Summary of reaction path following
 --------------------------------------------------------------------------
                        Energy    RxCoord
   1                   -0.04344 -17.90825
   2                   -0.04339 -17.59953
   3                   -0.04333 -17.29076
   4                   -0.04326 -16.98198
   5                   -0.04317 -16.67320
   6                   -0.04308 -16.36440
   7                   -0.04298 -16.05560
   8                   -0.04286 -15.74680
   9                   -0.04273 -15.43798
  10                   -0.04259 -15.12917
  11                   -0.04243 -14.82035
  12                   -0.04226 -14.51153
  13                   -0.04208 -14.20270
  14                   -0.04189 -13.89388
  15                   -0.04169 -13.58505
  16                   -0.04148 -13.27624
  17                   -0.04127 -12.96742
  18                   -0.04104 -12.65862
  19                   -0.04080 -12.34981
  20                   -0.04055 -12.04101
  21                   -0.04030 -11.73219
  22                   -0.04004 -11.42337
  23                   -0.03977 -11.11456
  24                   -0.03949 -10.80574
  25                   -0.03921 -10.49692
  26                   -0.03893 -10.18810
  27                   -0.03863  -9.87929
  28                   -0.03833  -9.57047
  29                   -0.03802  -9.26167
  30                   -0.03770  -8.95288
  31                   -0.03737  -8.64410
  32                   -0.03703  -8.33535
  33                   -0.03668  -8.02661
  34                   -0.03631  -7.71786
  35                   -0.03591  -7.40909
  36                   -0.03548  -7.10032
  37                   -0.03500  -6.79154
  38                   -0.03448  -6.48274
  39                   -0.03391  -6.17394
  40                   -0.03328  -5.86512
  41                   -0.03257  -5.55629
  42                   -0.03177  -5.24748
  43                   -0.03087  -4.93866
  44                   -0.02986  -4.62985
  45                   -0.02873  -4.32104
  46                   -0.02748  -4.01223
  47                   -0.02607  -3.70342
  48                   -0.02449  -3.39462
  49                   -0.02274  -3.08587
  50                   -0.02078  -2.77724
  51                   -0.01859  -2.46891
  52                   -0.01611  -2.16084
  53                   -0.01330  -1.85258
  54                   -0.01023  -1.54400
  55                   -0.00712  -1.23525
  56                   -0.00428  -0.92646
  57                   -0.00200  -0.61765
  58                   -0.00052  -0.30887
  59                    0.00000   0.00000
  60                   -0.00053   0.30886
  61                   -0.00212   0.61763
  62                   -0.00471   0.92642
  63                   -0.00821   1.23521
  64                   -0.01247   1.54401
  65                   -0.01734   1.85282
  66                   -0.02267   2.16163
  67                   -0.02825   2.47045
  68                   -0.03385   2.77927
  69                   -0.03925   3.08806
  70                   -0.04418   3.39674
  71                   -0.04846   3.70517
  72                   -0.05202   4.01322
  73                   -0.05497   4.32122
  74                   -0.05748   4.62962
  75                   -0.05965   4.93829
  76                   -0.06153   5.24706
  77                   -0.06317   5.55587
  78                   -0.06460   5.86468
  79                   -0.06585   6.17351
  80                   -0.06693   6.48233
  81                   -0.06787   6.79114
  82                   -0.06869   7.09996
  83                   -0.06942   7.40878
  84                   -0.07005   7.71762
  85                   -0.07061   8.02645
  86                   -0.07110   8.33529
  87                   -0.07154   8.64411
  88                   -0.07193   8.95293
  89                   -0.07229   9.26174
  90                   -0.07260   9.57054
  91                   -0.07289   9.87933
  92                   -0.07315  10.18812
  93                   -0.07338  10.49690
  94                   -0.07360  10.80568
  95                   -0.07380  11.11446
  96                   -0.07398  11.42326
  97                   -0.07416  11.73207
  98                   -0.07433  12.04088
  99                   -0.07449  12.34970
 100                   -0.07463  12.65852
 101                   -0.07477  12.96734
 102                   -0.07490  13.27617
 103                   -0.07502  13.58499
 104                   -0.07513  13.89381
 105                   -0.07523  14.20263
 106                   -0.07533  14.51144
 107                   -0.07541  14.82024
 108                   -0.07548  15.12902
 109                   -0.07554  15.43777
 110                   -0.07558  15.74649
 --------------------------------------------------------------------------
 
 Total number of points:                  109
 Total number of gradient calculations:   112
 Total number of Hessian calculations:    110
 IRC-IRC-IRC-IRC-IRC-IRC-IRC-IRC-IRC-IRC-IRC-IRC-IRC-IRC-IRC-IRC-IRC-IRC
 Leave Link  123 at Mon Oct  3 17:42:33 2022, MaxMem=    33554432 cpu:         1.0
 (Enter /opt/gaussian/g09_d.01/g09/l202.exe)
                          Input orientation:                          
 ---------------------------------------------------------------------
 Center     Atomic      Atomic             Coordinates (Angstroms)
 Number     Number       Type             X           Y           Z
 ---------------------------------------------------------------------
      1          6           0       -1.819360    1.676883    0.618874
      2          6           0       -1.443346    0.706534   -0.204977
      3          1           0       -0.896169   -0.680153    1.338133
      4          6           0        2.550377   -0.355218   -0.450349
      5          1           0        1.165648    0.320714    1.001639
      6          1           0       -1.646985   -1.422353   -0.083808
      7          6           0        1.352684   -0.288851    0.117946
      8          1           0       -1.471929    0.858548   -1.282784
      9          6           0       -0.961195   -0.635856    0.242285
     10          1           0       -1.789388    1.550968    1.698847
     11          1           0       -2.179898    2.632161    0.250770
     12          8           0        0.285801   -0.985030   -0.341387
     13          1           0        2.721488   -0.957144   -1.335719
     14          1           0        3.381605    0.191442   -0.024264
 ---------------------------------------------------------------------
                    Distance matrix (angstroms):
                    1          2          3          4          5
     1  C    0.000000
     2  C    1.327288   0.000000
     3  H    2.631584   2.145575   0.000000
     4  C    4.936322   4.139729   3.896528   0.000000
     5  H    3.300905   2.900281   2.316474   2.117221   0.000000
     6  H    3.182568   2.142034   1.771017   4.346375   3.482439
     7  C    3.765222   2.985440   2.588303   1.327341   1.089708
     8  H    2.099211   1.088850   3.093268   4.283121   3.530534
     9  C    2.495401   1.494832   1.098669   3.590215   2.452571
    10  H    1.087701   2.111246   2.430197   5.204436   3.275953
    11  H    1.085378   2.111458   3.715070   5.638396   4.135126
    12  O    3.526980   2.422797   2.076244   2.353049   2.069497
    13  H    5.601592   4.625175   4.507066   1.084193   3.084931
    14  H    5.447036   4.855732   4.573309   1.082277   2.445333
                    6          7          8          9         10
     6  H    0.000000
     7  C    3.213027   0.000000
     8  H    2.582769   3.355147   0.000000
     9  C    1.093262   2.343055   2.195433   0.000000
    10  H    3.469694   3.969483   3.077394   2.754937   0.000000
    11  H    4.103051   4.585748   2.449227   3.487871   1.848892
    12  O    1.998314   1.354213   2.715626   1.420421   3.860085
    13  H    4.568068   2.105560   4.569933   4.019387   5.987255
    14  H    5.281533   2.089839   5.058231   4.428926   5.617526
                   11         12         13         14
    11  H    0.000000
    12  O    4.417510   0.000000
    13  H    6.278825   2.630977   0.000000
    14  H    6.079727   3.326959   1.864113   0.000000
 Symmetry turned off by external request.
 Stoichiometry    C5H8O
 Framework group  C1[X(C5H8O)]
 Deg. of freedom    36
 Full point group                 C1      NOp   1
 Rotational constants (GHZ):      8.3892004      1.9449764      1.7184479
 Leave Link  202 at Mon Oct  3 17:42:33 2022, MaxMem=    33554432 cpu:         0.0
 (Enter /opt/gaussian/g09_d.01/g09/l601.exe)
 Copying SCF densities to generalized density rwf, IOpCl= 0 IROHF=0.

 **********************************************************************

            Population analysis using the SCF density.

 **********************************************************************

 Alpha  occ. eigenvalues --  -19.22703 -10.28178 -10.26848 -10.23408 -10.22803
 Alpha  occ. eigenvalues --  -10.19539  -1.09731  -0.82913  -0.77942  -0.70517
 Alpha  occ. eigenvalues --   -0.60531  -0.58986  -0.53451  -0.49830  -0.48069
 Alpha  occ. eigenvalues --   -0.45948  -0.42270  -0.39845  -0.39668  -0.35491
 Alpha  occ. eigenvalues --   -0.34481  -0.29102  -0.23556
 Alpha virt. eigenvalues --    0.00046   0.03772   0.06392   0.07755   0.09079
 Alpha virt. eigenvalues --    0.09594   0.11379   0.13607   0.14110   0.15436
 Alpha virt. eigenvalues --    0.16563   0.24016   0.26915   0.30700   0.31797
 Alpha virt. eigenvalues --    0.32682   0.33758   0.36915   0.38980   0.40624
 Alpha virt. eigenvalues --    0.41324   0.43555   0.44081   0.46928   0.48284
 Alpha virt. eigenvalues --    0.53149   0.53766   0.56724   0.57905   0.60196
 Alpha virt. eigenvalues --    0.60891   0.62830   0.64180   0.66058   0.67443
 Alpha virt. eigenvalues --    0.70771   0.71974   0.75041   0.79647   0.80384
 Alpha virt. eigenvalues --    0.86636   0.88099   0.92755   0.94679   1.05468
 Alpha virt. eigenvalues --    1.09249   1.14419   1.19345   1.21580   1.25471
 Alpha virt. eigenvalues --    1.35052   1.36935   1.42589   1.45688   1.47460
 Alpha virt. eigenvalues --    1.49456   1.53231   1.54045   1.59134   1.62652
 Alpha virt. eigenvalues --    1.69078   1.71143   1.73985   1.77435   1.86502
 Alpha virt. eigenvalues --    1.87973   1.95358   2.01193   2.04831   2.10290
 Alpha virt. eigenvalues --    2.19255   2.22264   2.31418   2.32986   2.37534
 Alpha virt. eigenvalues --    2.38528   2.43216   2.46853   2.60904   2.64157
 Alpha virt. eigenvalues --    2.67966   2.79039   2.85189   2.87554   2.91164
 Alpha virt. eigenvalues --    2.98378   3.02070   3.11859   3.19664   3.23162
 Alpha virt. eigenvalues --    3.25421   3.28600   3.29571   3.32289   3.36488
 Alpha virt. eigenvalues --    3.53669   3.60065   3.85104   3.99900   4.14709
 Alpha virt. eigenvalues --    4.93431   5.24530   5.70783  23.40412  23.45186
 Alpha virt. eigenvalues --   23.74193  24.32127  24.32329  50.00420
          Condensed to atoms (all electrons):
               1          2          3          4          5          6
     1  C    5.144005   0.591926   0.005769  -0.000290   0.002104   0.001108
     2  C    0.591926   5.135772  -0.076085  -0.000257   0.001063  -0.042229
     3  H    0.005769  -0.076085   0.511255   0.000006   0.008665  -0.029653
     4  C   -0.000290  -0.000257   0.000006   5.227802  -0.054840  -0.000314
     5  H    0.002104   0.001063   0.008665  -0.054840   0.524430   0.000664
     6  H    0.001108  -0.042229  -0.029653  -0.000314   0.000664   0.467361
     7  C   -0.000814  -0.016345  -0.012577   0.654242   0.367569   0.007439
     8  H   -0.036134   0.387016   0.006950  -0.000182   0.000845  -0.003051
     9  C   -0.054610   0.339965   0.391150   0.004835  -0.006408   0.391755
    10  H    0.389205  -0.045516   0.006041  -0.000017   0.000112   0.000267
    11  H    0.386041  -0.031339  -0.000092   0.000016   0.000140  -0.000407
    12  O    0.002682  -0.046033  -0.031581  -0.057934  -0.047156  -0.029908
    13  H   -0.000005  -0.000126   0.000182   0.375554   0.007829  -0.000016
    14  H    0.000016   0.000053  -0.000001   0.387028  -0.005350   0.000021
               7          8          9         10         11         12
     1  C   -0.000814  -0.036134  -0.054610   0.389205   0.386041   0.002682
     2  C   -0.016345   0.387016   0.339965  -0.045516  -0.031339  -0.046033
     3  H   -0.012577   0.006950   0.391150   0.006041  -0.000092  -0.031581
     4  C    0.654242  -0.000182   0.004835  -0.000017   0.000016  -0.057934
     5  H    0.367569   0.000845  -0.006408   0.000112   0.000140  -0.047156
     6  H    0.007439  -0.003051   0.391755   0.000267  -0.000407  -0.029908
     7  C    4.821873  -0.000053  -0.082761  -0.000049  -0.000037   0.316257
     8  H   -0.000053   0.469116  -0.044772   0.006299  -0.008164   0.004544
     9  C   -0.082761  -0.044772   5.128669  -0.008758   0.005364   0.252905
    10  H   -0.000049   0.006299  -0.008758   0.469501  -0.034899   0.000182
    11  H   -0.000037  -0.008164   0.005364  -0.034899   0.454887  -0.000247
    12  O    0.316257   0.004544   0.252905   0.000182  -0.000247   7.929794
    13  H   -0.038757   0.000082  -0.000145   0.000000   0.000001   0.002867
    14  H   -0.032568   0.000001  -0.000474   0.000000   0.000000   0.002874
              13         14
     1  C   -0.000005   0.000016
     2  C   -0.000126   0.000053
     3  H    0.000182  -0.000001
     4  C    0.375554   0.387028
     5  H    0.007829  -0.005350
     6  H   -0.000016   0.000021
     7  C   -0.038757  -0.032568
     8  H    0.000082   0.000001
     9  C   -0.000145  -0.000474
    10  H    0.000000   0.000000
    11  H    0.000001   0.000000
    12  O    0.002867   0.002874
    13  H    0.458318  -0.029376
    14  H   -0.029376   0.458613
 Mulliken charges:
               1
     1  C   -0.431001
     2  C   -0.197864
     3  H    0.219969
     4  C   -0.535648
     5  H    0.200334
     6  H    0.236963
     7  C    0.016582
     8  H    0.217503
     9  C   -0.316716
    10  H    0.217633
    11  H    0.228736
    12  O   -0.299247
    13  H    0.223592
    14  H    0.219163
 Sum of Mulliken charges =   0.00000
 Mulliken charges with hydrogens summed into heavy atoms:
               1
     1  C    0.015369
     2  C    0.019639
     4  C   -0.092893
     7  C    0.216916
     9  C    0.140216
    12  O   -0.299247
 APT charges:
               1
     1  C   -0.811911
     2  C   -0.649406
     3  H    0.389030
     4  C   -0.773664
     5  H    0.303118
     6  H    0.552973
     7  C   -0.604025
     8  H    0.432557
     9  C   -0.925394
    10  H    0.435786
    11  H    0.680377
    12  O   -0.187241
    13  H    0.520314
    14  H    0.637488
 Sum of APT charges =   0.00000
 APT charges with hydrogens summed into heavy atoms:
               1
     1  C    0.304252
     2  C   -0.216850
     4  C    0.384138
     7  C   -0.300907
     9  C    0.016609
    12  O   -0.187241
 Electronic spatial extent (au):  <R**2>=            730.3658
 Charge=              0.0000 electrons
 Dipole moment (field-independent basis, Debye):
    X=             -1.2421    Y=              0.8729    Z=              0.9706  Tot=              1.8019
 Quadrupole moment (field-independent basis, Debye-Ang):
   XX=            -36.7058   YY=            -37.7731   ZZ=            -35.4417
   XY=              0.7111   XZ=              0.1691   YZ=              0.5777
 Traceless Quadrupole moment (field-independent basis, Debye-Ang):
   XX=             -0.0656   YY=             -1.1329   ZZ=              1.1985
   XY=              0.7111   XZ=              0.1691   YZ=              0.5777
 Octapole moment (field-independent basis, Debye-Ang**2):
  XXX=              9.5760  YYY=             -1.8397  ZZZ=             -1.6414  XYY=             -8.3854
  XXY=             -0.0520  XXZ=             -2.9334  XZZ=             -1.8314  YZZ=             -1.5445
  YYZ=             -0.9918  XYZ=              2.7194
 Hexadecapole moment (field-independent basis, Debye-Ang**3):
 XXXX=           -658.5441 YYYY=           -241.9673 ZZZZ=            -96.5482 XXXY=            110.6116
 XXXZ=             45.1985 YYYX=             88.8657 YYYZ=            -25.4185 ZZZX=             42.8908
 ZZZY=            -22.4154 XXYY=           -142.7148 XXZZ=           -121.9024 YYZZ=            -57.5751
 XXYZ=              0.7124 YYXZ=             13.7323 ZZXY=             27.5138
 N-N= 2.212597924337D+02 E-N=-1.072582455982D+03  KE= 2.693165732301D+02
  Exact polarizability:   0.000   0.000   0.000   0.000   0.000   0.000
 Approx polarizability:  87.337  -6.462  73.621 -14.333  14.996  74.523
 No NMR shielding tensors so no spin-rotation constants.
 Leave Link  601 at Mon Oct  3 17:42:33 2022, MaxMem=    33554432 cpu:         0.7
 (Enter /opt/gaussian/g09_d.01/g09/l9999.exe)

 This type of calculation cannot be archived.


 IF AT FIRST YOU DON'T SUCCEED, TRY, TRY AGAIN.
 THEN GIVE UP;
 THERE'S NO USE BEING A DAMN FOOL ABOUT IT.

                                 -- W. C. FIELDS
 Job cpu time:       0 days  5 hours 34 minutes 16.2 seconds.
 File lengths (MBytes):  RWF=     35 Int=      0 D2E=      0 Chk=      4 Scr=      1
 Normal termination of Gaussian 09 at Mon Oct  3 17:42:33 2022.
